35
time = 0(fs) Energy = 0(eV)
BOX    5.00000000    0.00000000    0.00000000    0.00000000    5.00000000    0.00000000    0.00000000    0.00000000    5.00000000
   W    0.00000000    0.00000000    0.00000000    0.00000000    0.00000000    0.00000000    0.00000000    0.00000000    0.00000000
   W    1.00000000    1.00000000    1.00000000    0.00000000    0.00000000    0.00000000    0.00000000    0.00000000    0.00000000
   W    0.00000000    0.00000000    2.00000000    0.00000000    0.00000000    0.00000000    0.00000000    0.00000000    0.00000000
   W    1.00000000    1.00000000    3.00000000    0.00000000    0.00000000    0.00000000    0.00000000    0.00000000    0.00000000
   W    0.00000000    0.00000000    4.00000000    0.00000000    0.00000000    0.00000000    0.00000000    0.00000000    0.00000000
   W    0.00000000    2.00000000    0.00000000    0.00000000    0.00000000    0.00000000    0.00000000    0.00000000    0.00000000
   W    1.00000000    3.00000000    1.00000000    0.00000000    0.00000000    0.00000000    0.00000000    0.00000000    0.00000000
   W    0.00000000    2.00000000    2.00000000    0.00000000    0.00000000    0.00000000    0.00000000    0.00000000    0.00000000
   W    1.00000000    3.00000000    3.00000000    0.00000000    0.00000000    0.00000000    0.00000000    0.00000000    0.00000000
   W    0.00000000    2.00000000    4.00000000    0.00000000    0.00000000    0.00000000    0.00000000    0.00000000    0.00000000
   W    0.00000000    4.00000000    0.00000000    0.00000000    0.00000000    0.00000000    0.00000000    0.00000000    0.00000000
   W    0.00000000    4.00000000    2.00000000    0.00000000    0.00000000    0.00000000    0.00000000    0.00000000    0.00000000
   W    0.00000000    4.00000000    4.00000000    0.00000000    0.00000000    0.00000000    0.00000000    0.00000000    0.00000000
   W    2.00000000    0.00000000    0.00000000    0.00000000    0.00000000    0.00000000    0.00000000    0.00000000    0.00000000
   W    3.00000000    1.00000000    1.00000000    0.00000000    0.00000000    0.00000000    0.00000000    0.00000000    0.00000000
   W    2.00000000    0.00000000    2.00000000    0.00000000    0.00000000    0.00000000    0.00000000    0.00000000    0.00000000
   W    3.00000000    1.00000000    3.00000000    0.00000000    0.00000000    0.00000000    0.00000000    0.00000000    0.00000000
   W    2.00000000    0.00000000    4.00000000    0.00000000    0.00000000    0.00000000    0.00000000    0.00000000    0.00000000
   W    2.00000000    2.00000000    0.00000000    0.00000000    0.00000000    0.00000000    0.00000000    0.00000000    0.00000000
   W    3.00000000    3.00000000    1.00000000    0.00000000    0.00000000    0.00000000    0.00000000    0.00000000    0.00000000
   W    2.00000000    2.00000000    2.00000000    0.00000000    0.00000000    0.00000000    0.00000000    0.00000000    0.00000000
   W    3.00000000    3.00000000    3.00000000    0.00000000    0.00000000    0.00000000    0.00000000    0.00000000    0.00000000
   W    2.00000000    2.00000000    4.00000000    0.00000000    0.00000000    0.00000000    0.00000000    0.00000000    0.00000000
   W    2.00000000    4.00000000    0.00000000    0.00000000    0.00000000    0.00000000    0.00000000    0.00000000    0.00000000
   W    2.00000000    4.00000000    2.00000000    0.00000000    0.00000000    0.00000000    0.00000000    0.00000000    0.00000000
   W    2.00000000    4.00000000    4.00000000    0.00000000    0.00000000    0.00000000    0.00000000    0.00000000    0.00000000
   W    4.00000000    0.00000000    0.00000000    0.00000000    0.00000000    0.00000000    0.00000000    0.00000000    0.00000000
   W    4.00000000    0.00000000    2.00000000    0.00000000    0.00000000    0.00000000    0.00000000    0.00000000    0.00000000
   W    4.00000000    0.00000000    4.00000000    0.00000000    0.00000000    0.00000000    0.00000000    0.00000000    0.00000000
   W    4.00000000    2.00000000    0.00000000    0.00000000    0.00000000    0.00000000    0.00000000    0.00000000    0.00000000
   W    4.00000000    2.00000000    2.00000000    0.00000000    0.00000000    0.00000000    0.00000000    0.00000000    0.00000000
   W    4.00000000    2.00000000    4.00000000    0.00000000    0.00000000    0.00000000    0.00000000    0.00000000    0.00000000
   W    4.00000000    4.00000000    0.00000000    0.00000000    0.00000000    0.00000000    0.00000000    0.00000000    0.00000000
   W    4.00000000    4.00000000    2.00000000    0.00000000    0.00000000    0.00000000    0.00000000    0.00000000    0.00000000
   W    4.00000000    4.00000000    4.00000000    0.00000000    0.00000000    0.00000000    0.00000000    0.00000000    0.00000000
   W    0.00000000    0.00000000    0.00000000    0.00000000    0.00000000    0.00000000    0.00000000    0.00000000    0.00000000
