250
   time=   0 (fs)  Energy=  0 (eV)
BOX       10.00000000      0.00000000      0.00000000      0.00000000     10.00000000      0.00000000      0.00000000      0.00000000     10.00000000
   W        0.15675421      0.19681536      0.19784317      0.00000000      0.00000000      0.00000000      0.00000000      0.00000000      0.00000000
   W        1.15675421      1.19681536      1.19784317      0.00000000      0.00000000      0.00000000      0.00000000      0.00000000      0.00000000
   W        0.15675421      0.19681536      2.19784317      0.00000000      0.00000000      0.00000000      0.00000000      0.00000000      0.00000000
   W        1.15675421      1.19681536      3.19784317      0.00000000      0.00000000      0.00000000      0.00000000      0.00000000      0.00000000
   W        0.15675421      0.19681536      4.19784317      0.00000000      0.00000000      0.00000000      0.00000000      0.00000000      0.00000000
   W        1.15675421      1.19681536      5.19784317      0.00000000      0.00000000      0.00000000      0.00000000      0.00000000      0.00000000
   W        0.15675421      0.19681536      6.19784317      0.00000000      0.00000000      0.00000000      0.00000000      0.00000000      0.00000000
   W        1.15675421      1.19681536      7.19784317      0.00000000      0.00000000      0.00000000      0.00000000      0.00000000      0.00000000
   W        0.15675421      0.19681536      8.19784317      0.00000000      0.00000000      0.00000000      0.00000000      0.00000000      0.00000000
   W        1.15675421      1.19681536      9.19784317      0.00000000      0.00000000      0.00000000      0.00000000      0.00000000      0.00000000
   W        0.15675421      2.19681536      0.19784317      0.00000000      0.00000000      0.00000000      0.00000000      0.00000000      0.00000000
   W        1.15675421      3.19681536      1.19784317      0.00000000      0.00000000      0.00000000      0.00000000      0.00000000      0.00000000
   W        0.15675421      2.19681536      2.19784317      0.00000000      0.00000000      0.00000000      0.00000000      0.00000000      0.00000000
   W        1.15675421      3.19681536      3.19784317      0.00000000      0.00000000      0.00000000      0.00000000      0.00000000      0.00000000
   W        0.15675421      2.19681536      4.19784317      0.00000000      0.00000000      0.00000000      0.00000000      0.00000000      0.00000000
   W        1.15675421      3.19681536      5.19784317      0.00000000      0.00000000      0.00000000      0.00000000      0.00000000      0.00000000
   W        0.15675421      2.19681536      6.19784317      0.00000000      0.00000000      0.00000000      0.00000000      0.00000000      0.00000000
   W        1.15675421      3.19681536      7.19784317      0.00000000      0.00000000      0.00000000      0.00000000      0.00000000      0.00000000
   W        0.15675421      2.19681536      8.19784317      0.00000000      0.00000000      0.00000000      0.00000000      0.00000000      0.00000000
   W        1.15675421      3.19681536      9.19784317      0.00000000      0.00000000      0.00000000      0.00000000      0.00000000      0.00000000
   W        0.15675421      4.19681536      0.19784317      0.00000000      0.00000000      0.00000000      0.00000000      0.00000000      0.00000000
   W        1.15675421      5.19681536      1.19784317      0.00000000      0.00000000      0.00000000      0.00000000      0.00000000      0.00000000
   W        0.15675421      4.19681536      2.19784317      0.00000000      0.00000000      0.00000000      0.00000000      0.00000000      0.00000000
   W        1.15675421      5.19681536      3.19784317      0.00000000      0.00000000      0.00000000      0.00000000      0.00000000      0.00000000
   W        0.15675421      4.19681536      4.19784317      0.00000000      0.00000000      0.00000000      0.00000000      0.00000000      0.00000000
   W        1.15675421      5.19681536      5.19784317      0.00000000      0.00000000      0.00000000      0.00000000      0.00000000      0.00000000
   W        0.15675421      4.19681536      6.19784317      0.00000000      0.00000000      0.00000000      0.00000000      0.00000000      0.00000000
   W        1.15675421      5.19681536      7.19784317      0.00000000      0.00000000      0.00000000      0.00000000      0.00000000      0.00000000
   W        0.15675421      4.19681536      8.19784317      0.00000000      0.00000000      0.00000000      0.00000000      0.00000000      0.00000000
   W        1.15675421      5.19681536      9.19784317      0.00000000      0.00000000      0.00000000      0.00000000      0.00000000      0.00000000
   W        0.15675421      6.19681536      0.19784317      0.00000000      0.00000000      0.00000000      0.00000000      0.00000000      0.00000000
   W        1.15675421      7.19681536      1.19784317      0.00000000      0.00000000      0.00000000      0.00000000      0.00000000      0.00000000
   W        0.15675421      6.19681536      2.19784317      0.00000000      0.00000000      0.00000000      0.00000000      0.00000000      0.00000000
   W        1.15675421      7.19681536      3.19784317      0.00000000      0.00000000      0.00000000      0.00000000      0.00000000      0.00000000
   W        0.15675421      6.19681536      4.19784317      0.00000000      0.00000000      0.00000000      0.00000000      0.00000000      0.00000000
   W        1.15675421      7.19681536      5.19784317      0.00000000      0.00000000      0.00000000      0.00000000      0.00000000      0.00000000
   W        0.15675421      6.19681536      6.19784317      0.00000000      0.00000000      0.00000000      0.00000000      0.00000000      0.00000000
   W        1.15675421      7.19681536      7.19784317      0.00000000      0.00000000      0.00000000      0.00000000      0.00000000      0.00000000
   W        0.15675421      6.19681536      8.19784317      0.00000000      0.00000000      0.00000000      0.00000000      0.00000000      0.00000000
   W        1.15675421      7.19681536      9.19784317      0.00000000      0.00000000      0.00000000      0.00000000      0.00000000      0.00000000
   W        0.15675421      8.19681536      0.19784317      0.00000000      0.00000000      0.00000000      0.00000000      0.00000000      0.00000000
   W        1.15675421      9.19681536      1.19784317      0.00000000      0.00000000      0.00000000      0.00000000      0.00000000      0.00000000
   W        0.15675421      8.19681536      2.19784317      0.00000000      0.00000000      0.00000000      0.00000000      0.00000000      0.00000000
   W        1.15675421      9.19681536      3.19784317      0.00000000      0.00000000      0.00000000      0.00000000      0.00000000      0.00000000
   W        0.15675421      8.19681536      4.19784317      0.00000000      0.00000000      0.00000000      0.00000000      0.00000000      0.00000000
   W        1.15675421      9.19681536      5.19784317      0.00000000      0.00000000      0.00000000      0.00000000      0.00000000      0.00000000
   W        0.15675421      8.19681536      6.19784317      0.00000000      0.00000000      0.00000000      0.00000000      0.00000000      0.00000000
   W        1.15675421      9.19681536      7.19784317      0.00000000      0.00000000      0.00000000      0.00000000      0.00000000      0.00000000
   W        0.15675421      8.19681536      8.19784317      0.00000000      0.00000000      0.00000000      0.00000000      0.00000000      0.00000000
   W        1.15675421      9.19681536      9.19784317      0.00000000      0.00000000      0.00000000      0.00000000      0.00000000      0.00000000
   W        2.15675421      0.19681536      0.19784317      0.00000000      0.00000000      0.00000000      0.00000000      0.00000000      0.00000000
   W        3.15675421      1.19681536      1.19784317      0.00000000      0.00000000      0.00000000      0.00000000      0.00000000      0.00000000
   W        2.15675421      0.19681536      2.19784317      0.00000000      0.00000000      0.00000000      0.00000000      0.00000000      0.00000000
   W        3.15675421      1.19681536      3.19784317      0.00000000      0.00000000      0.00000000      0.00000000      0.00000000      0.00000000
   W        2.15675421      0.19681536      4.19784317      0.00000000      0.00000000      0.00000000      0.00000000      0.00000000      0.00000000
   W        3.15675421      1.19681536      5.19784317      0.00000000      0.00000000      0.00000000      0.00000000      0.00000000      0.00000000
   W        2.15675421      0.19681536      6.19784317      0.00000000      0.00000000      0.00000000      0.00000000      0.00000000      0.00000000
   W        3.15675421      1.19681536      7.19784317      0.00000000      0.00000000      0.00000000      0.00000000      0.00000000      0.00000000
   W        2.15675421      0.19681536      8.19784317      0.00000000      0.00000000      0.00000000      0.00000000      0.00000000      0.00000000
   W        3.15675421      1.19681536      9.19784317      0.00000000      0.00000000      0.00000000      0.00000000      0.00000000      0.00000000
   W        2.15675421      2.19681536      0.19784317      0.00000000      0.00000000      0.00000000      0.00000000      0.00000000      0.00000000
   W        3.15675421      3.19681536      1.19784317      0.00000000      0.00000000      0.00000000      0.00000000      0.00000000      0.00000000
   W        2.15675421      2.19681536      2.19784317      0.00000000      0.00000000      0.00000000      0.00000000      0.00000000      0.00000000
   W        3.15675421      3.19681536      3.19784317      0.00000000      0.00000000      0.00000000      0.00000000      0.00000000      0.00000000
   W        2.15675421      2.19681536      4.19784317      0.00000000      0.00000000      0.00000000      0.00000000      0.00000000      0.00000000
   W        3.15675421      3.19681536      5.19784317      0.00000000      0.00000000      0.00000000      0.00000000      0.00000000      0.00000000
   W        2.15675421      2.19681536      6.19784317      0.00000000      0.00000000      0.00000000      0.00000000      0.00000000      0.00000000
   W        3.15675421      3.19681536      7.19784317      0.00000000      0.00000000      0.00000000      0.00000000      0.00000000      0.00000000
   W        2.15675421      2.19681536      8.19784317      0.00000000      0.00000000      0.00000000      0.00000000      0.00000000      0.00000000
   W        3.15675421      3.19681536      9.19784317      0.00000000      0.00000000      0.00000000      0.00000000      0.00000000      0.00000000
   W        2.15675421      4.19681536      0.19784317      0.00000000      0.00000000      0.00000000      0.00000000      0.00000000      0.00000000
   W        3.15675421      5.19681536      1.19784317      0.00000000      0.00000000      0.00000000      0.00000000      0.00000000      0.00000000
   W        2.15675421      4.19681536      2.19784317      0.00000000      0.00000000      0.00000000      0.00000000      0.00000000      0.00000000
   W        3.15675421      5.19681536      3.19784317      0.00000000      0.00000000      0.00000000      0.00000000      0.00000000      0.00000000
   W        2.15675421      4.19681536      4.19784317      0.00000000      0.00000000      0.00000000      0.00000000      0.00000000      0.00000000
   W        3.15675421      5.19681536      5.19784317      0.00000000      0.00000000      0.00000000      0.00000000      0.00000000      0.00000000
   W        2.15675421      4.19681536      6.19784317      0.00000000      0.00000000      0.00000000      0.00000000      0.00000000      0.00000000
   W        3.15675421      5.19681536      7.19784317      0.00000000      0.00000000      0.00000000      0.00000000      0.00000000      0.00000000
   W        2.15675421      4.19681536      8.19784317      0.00000000      0.00000000      0.00000000      0.00000000      0.00000000      0.00000000
   W        3.15675421      5.19681536      9.19784317      0.00000000      0.00000000      0.00000000      0.00000000      0.00000000      0.00000000
   W        2.15675421      6.19681536      0.19784317      0.00000000      0.00000000      0.00000000      0.00000000      0.00000000      0.00000000
   W        3.15675421      7.19681536      1.19784317      0.00000000      0.00000000      0.00000000      0.00000000      0.00000000      0.00000000
   W        2.15675421      6.19681536      2.19784317      0.00000000      0.00000000      0.00000000      0.00000000      0.00000000      0.00000000
   W        3.15675421      7.19681536      3.19784317      0.00000000      0.00000000      0.00000000      0.00000000      0.00000000      0.00000000
   W        2.15675421      6.19681536      4.19784317      0.00000000      0.00000000      0.00000000      0.00000000      0.00000000      0.00000000
   W        3.15675421      7.19681536      5.19784317      0.00000000      0.00000000      0.00000000      0.00000000      0.00000000      0.00000000
   W        2.15675421      6.19681536      6.19784317      0.00000000      0.00000000      0.00000000      0.00000000      0.00000000      0.00000000
   W        3.15675421      7.19681536      7.19784317      0.00000000      0.00000000      0.00000000      0.00000000      0.00000000      0.00000000
   W        2.15675421      6.19681536      8.19784317      0.00000000      0.00000000      0.00000000      0.00000000      0.00000000      0.00000000
   W        3.15675421      7.19681536      9.19784317      0.00000000      0.00000000      0.00000000      0.00000000      0.00000000      0.00000000
   W        2.15675421      8.19681536      0.19784317      0.00000000      0.00000000      0.00000000      0.00000000      0.00000000      0.00000000
   W        3.15675421      9.19681536      1.19784317      0.00000000      0.00000000      0.00000000      0.00000000      0.00000000      0.00000000
   W        2.15675421      8.19681536      2.19784317      0.00000000      0.00000000      0.00000000      0.00000000      0.00000000      0.00000000
   W        3.15675421      9.19681536      3.19784317      0.00000000      0.00000000      0.00000000      0.00000000      0.00000000      0.00000000
   W        2.15675421      8.19681536      4.19784317      0.00000000      0.00000000      0.00000000      0.00000000      0.00000000      0.00000000
   W        3.15675421      9.19681536      5.19784317      0.00000000      0.00000000      0.00000000      0.00000000      0.00000000      0.00000000
   W        2.15675421      8.19681536      6.19784317      0.00000000      0.00000000      0.00000000      0.00000000      0.00000000      0.00000000
   W        3.15675421      9.19681536      7.19784317      0.00000000      0.00000000      0.00000000      0.00000000      0.00000000      0.00000000
   W        2.15675421      8.19681536      8.19784317      0.00000000      0.00000000      0.00000000      0.00000000      0.00000000      0.00000000
   W        3.15675421      9.19681536      9.19784317      0.00000000      0.00000000      0.00000000      0.00000000      0.00000000      0.00000000
   W        4.15675421      0.19681536      0.19784317      0.00000000      0.00000000      0.00000000      0.00000000      0.00000000      0.00000000
   W        5.15675421      1.19681536      1.19784317      0.00000000      0.00000000      0.00000000      0.00000000      0.00000000      0.00000000
   W        4.15675421      0.19681536      2.19784317      0.00000000      0.00000000      0.00000000      0.00000000      0.00000000      0.00000000
   W        5.15675421      1.19681536      3.19784317      0.00000000      0.00000000      0.00000000      0.00000000      0.00000000      0.00000000
   W        4.15675421      0.19681536      4.19784317      0.00000000      0.00000000      0.00000000      0.00000000      0.00000000      0.00000000
   W        5.15675421      1.19681536      5.19784317      0.00000000      0.00000000      0.00000000      0.00000000      0.00000000      0.00000000
   W        4.15675421      0.19681536      6.19784317      0.00000000      0.00000000      0.00000000      0.00000000      0.00000000      0.00000000
   W        5.15675421      1.19681536      7.19784317      0.00000000      0.00000000      0.00000000      0.00000000      0.00000000      0.00000000
   W        4.15675421      0.19681536      8.19784317      0.00000000      0.00000000      0.00000000      0.00000000      0.00000000      0.00000000
   W        5.15675421      1.19681536      9.19784317      0.00000000      0.00000000      0.00000000      0.00000000      0.00000000      0.00000000
   W        4.15675421      2.19681536      0.19784317      0.00000000      0.00000000      0.00000000      0.00000000      0.00000000      0.00000000
   W        5.15675421      3.19681536      1.19784317      0.00000000      0.00000000      0.00000000      0.00000000      0.00000000      0.00000000
   W        4.15675421      2.19681536      2.19784317      0.00000000      0.00000000      0.00000000      0.00000000      0.00000000      0.00000000
   W        5.15675421      3.19681536      3.19784317      0.00000000      0.00000000      0.00000000      0.00000000      0.00000000      0.00000000
   W        4.15675421      2.19681536      4.19784317      0.00000000      0.00000000      0.00000000      0.00000000      0.00000000      0.00000000
   W        5.15675421      3.19681536      5.19784317      0.00000000      0.00000000      0.00000000      0.00000000      0.00000000      0.00000000
   W        4.15675421      2.19681536      6.19784317      0.00000000      0.00000000      0.00000000      0.00000000      0.00000000      0.00000000
   W        5.15675421      3.19681536      7.19784317      0.00000000      0.00000000      0.00000000      0.00000000      0.00000000      0.00000000
   W        4.15675421      2.19681536      8.19784317      0.00000000      0.00000000      0.00000000      0.00000000      0.00000000      0.00000000
   W        5.15675421      3.19681536      9.19784317      0.00000000      0.00000000      0.00000000      0.00000000      0.00000000      0.00000000
   W        4.15675421      4.19681536      0.19784317      0.00000000      0.00000000      0.00000000      0.00000000      0.00000000      0.00000000
   W        5.15675421      5.19681536      1.19784317      0.00000000      0.00000000      0.00000000      0.00000000      0.00000000      0.00000000
   W        4.15675421      4.19681536      2.19784317      0.00000000      0.00000000      0.00000000      0.00000000      0.00000000      0.00000000
   W        5.15675421      5.19681536      3.19784317      0.00000000      0.00000000      0.00000000      0.00000000      0.00000000      0.00000000
   W        4.15675421      4.19681536      4.19784317      0.00000000      0.00000000      0.00000000      0.00000000      0.00000000      0.00000000
   W        5.15675421      5.19681536      5.19784317      0.00000000      0.00000000      0.00000000      0.00000000      0.00000000      0.00000000
   W        4.15675421      4.19681536      6.19784317      0.00000000      0.00000000      0.00000000      0.00000000      0.00000000      0.00000000
   W        5.15675421      5.19681536      7.19784317      0.00000000      0.00000000      0.00000000      0.00000000      0.00000000      0.00000000
   W        4.15675421      4.19681536      8.19784317      0.00000000      0.00000000      0.00000000      0.00000000      0.00000000      0.00000000
   W        5.15675421      5.19681536      9.19784317      0.00000000      0.00000000      0.00000000      0.00000000      0.00000000      0.00000000
   W        4.15675421      6.19681536      0.19784317      0.00000000      0.00000000      0.00000000      0.00000000      0.00000000      0.00000000
   W        5.15675421      7.19681536      1.19784317      0.00000000      0.00000000      0.00000000      0.00000000      0.00000000      0.00000000
   W        4.15675421      6.19681536      2.19784317      0.00000000      0.00000000      0.00000000      0.00000000      0.00000000      0.00000000
   W        5.15675421      7.19681536      3.19784317      0.00000000      0.00000000      0.00000000      0.00000000      0.00000000      0.00000000
   W        4.15675421      6.19681536      4.19784317      0.00000000      0.00000000      0.00000000      0.00000000      0.00000000      0.00000000
   W        5.15675421      7.19681536      5.19784317      0.00000000      0.00000000      0.00000000      0.00000000      0.00000000      0.00000000
   W        4.15675421      6.19681536      6.19784317      0.00000000      0.00000000      0.00000000      0.00000000      0.00000000      0.00000000
   W        5.15675421      7.19681536      7.19784317      0.00000000      0.00000000      0.00000000      0.00000000      0.00000000      0.00000000
   W        4.15675421      6.19681536      8.19784317      0.00000000      0.00000000      0.00000000      0.00000000      0.00000000      0.00000000
   W        5.15675421      7.19681536      9.19784317      0.00000000      0.00000000      0.00000000      0.00000000      0.00000000      0.00000000
   W        4.15675421      8.19681536      0.19784317      0.00000000      0.00000000      0.00000000      0.00000000      0.00000000      0.00000000
   W        5.15675421      9.19681536      1.19784317      0.00000000      0.00000000      0.00000000      0.00000000      0.00000000      0.00000000
   W        4.15675421      8.19681536      2.19784317      0.00000000      0.00000000      0.00000000      0.00000000      0.00000000      0.00000000
   W        5.15675421      9.19681536      3.19784317      0.00000000      0.00000000      0.00000000      0.00000000      0.00000000      0.00000000
   W        4.15675421      8.19681536      4.19784317      0.00000000      0.00000000      0.00000000      0.00000000      0.00000000      0.00000000
   W        5.15675421      9.19681536      5.19784317      0.00000000      0.00000000      0.00000000      0.00000000      0.00000000      0.00000000
   W        4.15675421      8.19681536      6.19784317      0.00000000      0.00000000      0.00000000      0.00000000      0.00000000      0.00000000
   W        5.15675421      9.19681536      7.19784317      0.00000000      0.00000000      0.00000000      0.00000000      0.00000000      0.00000000
   W        4.15675421      8.19681536      8.19784317      0.00000000      0.00000000      0.00000000      0.00000000      0.00000000      0.00000000
   W        5.15675421      9.19681536      9.19784317      0.00000000      0.00000000      0.00000000      0.00000000      0.00000000      0.00000000
   W        6.15675421      0.19681536      0.19784317      0.00000000      0.00000000      0.00000000      0.00000000      0.00000000      0.00000000
   W        7.15675421      1.19681536      1.19784317      0.00000000      0.00000000      0.00000000      0.00000000      0.00000000      0.00000000
   W        6.15675421      0.19681536      2.19784317      0.00000000      0.00000000      0.00000000      0.00000000      0.00000000      0.00000000
   W        7.15675421      1.19681536      3.19784317      0.00000000      0.00000000      0.00000000      0.00000000      0.00000000      0.00000000
   W        6.15675421      0.19681536      4.19784317      0.00000000      0.00000000      0.00000000      0.00000000      0.00000000      0.00000000
   W        7.15675421      1.19681536      5.19784317      0.00000000      0.00000000      0.00000000      0.00000000      0.00000000      0.00000000
   W        6.15675421      0.19681536      6.19784317      0.00000000      0.00000000      0.00000000      0.00000000      0.00000000      0.00000000
   W        7.15675421      1.19681536      7.19784317      0.00000000      0.00000000      0.00000000      0.00000000      0.00000000      0.00000000
   W        6.15675421      0.19681536      8.19784317      0.00000000      0.00000000      0.00000000      0.00000000      0.00000000      0.00000000
   W        7.15675421      1.19681536      9.19784317      0.00000000      0.00000000      0.00000000      0.00000000      0.00000000      0.00000000
   W        6.15675421      2.19681536      0.19784317      0.00000000      0.00000000      0.00000000      0.00000000      0.00000000      0.00000000
   W        7.15675421      3.19681536      1.19784317      0.00000000      0.00000000      0.00000000      0.00000000      0.00000000      0.00000000
   W        6.15675421      2.19681536      2.19784317      0.00000000      0.00000000      0.00000000      0.00000000      0.00000000      0.00000000
   W        7.15675421      3.19681536      3.19784317      0.00000000      0.00000000      0.00000000      0.00000000      0.00000000      0.00000000
   W        6.15675421      2.19681536      4.19784317      0.00000000      0.00000000      0.00000000      0.00000000      0.00000000      0.00000000
   W        7.15675421      3.19681536      5.19784317      0.00000000      0.00000000      0.00000000      0.00000000      0.00000000      0.00000000
   W        6.15675421      2.19681536      6.19784317      0.00000000      0.00000000      0.00000000      0.00000000      0.00000000      0.00000000
   W        7.15675421      3.19681536      7.19784317      0.00000000      0.00000000      0.00000000      0.00000000      0.00000000      0.00000000
   W        6.15675421      2.19681536      8.19784317      0.00000000      0.00000000      0.00000000      0.00000000      0.00000000      0.00000000
   W        7.15675421      3.19681536      9.19784317      0.00000000      0.00000000      0.00000000      0.00000000      0.00000000      0.00000000
   W        6.15675421      4.19681536      0.19784317      0.00000000      0.00000000      0.00000000      0.00000000      0.00000000      0.00000000
   W        7.15675421      5.19681536      1.19784317      0.00000000      0.00000000      0.00000000      0.00000000      0.00000000      0.00000000
   W        6.15675421      4.19681536      2.19784317      0.00000000      0.00000000      0.00000000      0.00000000      0.00000000      0.00000000
   W        7.15675421      5.19681536      3.19784317      0.00000000      0.00000000      0.00000000      0.00000000      0.00000000      0.00000000
   W        6.15675421      4.19681536      4.19784317      0.00000000      0.00000000      0.00000000      0.00000000      0.00000000      0.00000000
   W        7.15675421      5.19681536      5.19784317      0.00000000      0.00000000      0.00000000      0.00000000      0.00000000      0.00000000
   W        6.15675421      4.19681536      6.19784317      0.00000000      0.00000000      0.00000000      0.00000000      0.00000000      0.00000000
   W        7.15675421      5.19681536      7.19784317      0.00000000      0.00000000      0.00000000      0.00000000      0.00000000      0.00000000
   W        6.15675421      4.19681536      8.19784317      0.00000000      0.00000000      0.00000000      0.00000000      0.00000000      0.00000000
   W        7.15675421      5.19681536      9.19784317      0.00000000      0.00000000      0.00000000      0.00000000      0.00000000      0.00000000
   W        6.15675421      6.19681536      0.19784317      0.00000000      0.00000000      0.00000000      0.00000000      0.00000000      0.00000000
   W        7.15675421      7.19681536      1.19784317      0.00000000      0.00000000      0.00000000      0.00000000      0.00000000      0.00000000
   W        6.15675421      6.19681536      2.19784317      0.00000000      0.00000000      0.00000000      0.00000000      0.00000000      0.00000000
   W        7.15675421      7.19681536      3.19784317      0.00000000      0.00000000      0.00000000      0.00000000      0.00000000      0.00000000
   W        6.15675421      6.19681536      4.19784317      0.00000000      0.00000000      0.00000000      0.00000000      0.00000000      0.00000000
   W        7.15675421      7.19681536      5.19784317      0.00000000      0.00000000      0.00000000      0.00000000      0.00000000      0.00000000
   W        6.15675421      6.19681536      6.19784317      0.00000000      0.00000000      0.00000000      0.00000000      0.00000000      0.00000000
   W        7.15675421      7.19681536      7.19784317      0.00000000      0.00000000      0.00000000      0.00000000      0.00000000      0.00000000
   W        6.15675421      6.19681536      8.19784317      0.00000000      0.00000000      0.00000000      0.00000000      0.00000000      0.00000000
   W        7.15675421      7.19681536      9.19784317      0.00000000      0.00000000      0.00000000      0.00000000      0.00000000      0.00000000
   W        6.15675421      8.19681536      0.19784317      0.00000000      0.00000000      0.00000000      0.00000000      0.00000000      0.00000000
   W        7.15675421      9.19681536      1.19784317      0.00000000      0.00000000      0.00000000      0.00000000      0.00000000      0.00000000
   W        6.15675421      8.19681536      2.19784317      0.00000000      0.00000000      0.00000000      0.00000000      0.00000000      0.00000000
   W        7.15675421      9.19681536      3.19784317      0.00000000      0.00000000      0.00000000      0.00000000      0.00000000      0.00000000
   W        6.15675421      8.19681536      4.19784317      0.00000000      0.00000000      0.00000000      0.00000000      0.00000000      0.00000000
   W        7.15675421      9.19681536      5.19784317      0.00000000      0.00000000      0.00000000      0.00000000      0.00000000      0.00000000
   W        6.15675421      8.19681536      6.19784317      0.00000000      0.00000000      0.00000000      0.00000000      0.00000000      0.00000000