319
   time=   0 (fs)  Energy=  0 (eV)
BOX       10.00000000      0.00000000      0.00000000      0.00000000     10.00000000      0.00000000      0.00000000      0.00000000     10.00000000
   C        0.11789491      0.06147329      0.26541368      0.00000000      0.00000000      0.00000000      0.00000000      0.00000000      0.00000000
   C        1.61789491      1.56147329      0.26541368      0.00000000      0.00000000      0.00000000      0.00000000      0.00000000      0.00000000
   C        1.61789491      0.06147329      1.76541368      0.00000000      0.00000000      0.00000000      0.00000000      0.00000000      0.00000000
   C        0.11789491      1.56147329      1.76541368      0.00000000      0.00000000      0.00000000      0.00000000      0.00000000      0.00000000
   C        0.86789491      0.81147329      1.01541368      0.00000000      0.00000000      0.00000000      0.00000000      0.00000000      0.00000000
   C        2.36789491      2.31147329      1.01541368      0.00000000      0.00000000      0.00000000      0.00000000      0.00000000      0.00000000
   C        2.36789491      0.81147329      2.51541368      0.00000000      0.00000000      0.00000000      0.00000000      0.00000000      0.00000000
   C        0.86789491      2.31147329      2.51541368      0.00000000      0.00000000      0.00000000      0.00000000      0.00000000      0.00000000
   C        0.11789491      0.06147329      3.26541368      0.00000000      0.00000000      0.00000000      0.00000000      0.00000000      0.00000000
   C        1.61789491      1.56147329      3.26541368      0.00000000      0.00000000      0.00000000      0.00000000      0.00000000      0.00000000
   C        1.61789491      0.06147329      4.76541368      0.00000000      0.00000000      0.00000000      0.00000000      0.00000000      0.00000000
   C        0.11789491      1.56147329      4.76541368      0.00000000      0.00000000      0.00000000      0.00000000      0.00000000      0.00000000
   C        0.86789491      0.81147329      4.01541368      0.00000000      0.00000000      0.00000000      0.00000000      0.00000000      0.00000000
   C        2.36789491      2.31147329      4.01541368      0.00000000      0.00000000      0.00000000      0.00000000      0.00000000      0.00000000
   C        2.36789491      0.81147329      5.51541368      0.00000000      0.00000000      0.00000000      0.00000000      0.00000000      0.00000000
   C        0.86789491      2.31147329      5.51541368      0.00000000      0.00000000      0.00000000      0.00000000      0.00000000      0.00000000
   C        0.11789491      0.06147329      6.26541368      0.00000000      0.00000000      0.00000000      0.00000000      0.00000000      0.00000000
   C        1.61789491      1.56147329      6.26541368      0.00000000      0.00000000      0.00000000      0.00000000      0.00000000      0.00000000
   C        1.61789491      0.06147329      7.76541368      0.00000000      0.00000000      0.00000000      0.00000000      0.00000000      0.00000000
   C        0.11789491      1.56147329      7.76541368      0.00000000      0.00000000      0.00000000      0.00000000      0.00000000      0.00000000
   C        0.86789491      0.81147329      7.01541368      0.00000000      0.00000000      0.00000000      0.00000000      0.00000000      0.00000000
   C        2.36789491      2.31147329      7.01541368      0.00000000      0.00000000      0.00000000      0.00000000      0.00000000      0.00000000
   C        2.36789491      0.81147329      8.51541368      0.00000000      0.00000000      0.00000000      0.00000000      0.00000000      0.00000000
   C        0.86789491      2.31147329      8.51541368      0.00000000      0.00000000      0.00000000      0.00000000      0.00000000      0.00000000
   C        0.11789491      0.06147329      9.26541368      0.00000000      0.00000000      0.00000000      0.00000000      0.00000000      0.00000000
   C        1.61789491      1.56147329      9.26541368      0.00000000      0.00000000      0.00000000      0.00000000      0.00000000      0.00000000
   C        0.11789491      3.06147329      0.26541368      0.00000000      0.00000000      0.00000000      0.00000000      0.00000000      0.00000000
   C        1.61789491      4.56147329      0.26541368      0.00000000      0.00000000      0.00000000      0.00000000      0.00000000      0.00000000
   C        1.61789491      3.06147329      1.76541368      0.00000000      0.00000000      0.00000000      0.00000000      0.00000000      0.00000000
   C        0.11789491      4.56147329      1.76541368      0.00000000      0.00000000      0.00000000      0.00000000      0.00000000      0.00000000
   C        0.86789491      3.81147329      1.01541368      0.00000000      0.00000000      0.00000000      0.00000000      0.00000000      0.00000000
   C        2.36789491      5.31147329      1.01541368      0.00000000      0.00000000      0.00000000      0.00000000      0.00000000      0.00000000
   C        2.36789491      3.81147329      2.51541368      0.00000000      0.00000000      0.00000000      0.00000000      0.00000000      0.00000000
   C        0.86789491      5.31147329      2.51541368      0.00000000      0.00000000      0.00000000      0.00000000      0.00000000      0.00000000
   C        0.11789491      3.06147329      3.26541368      0.00000000      0.00000000      0.00000000      0.00000000      0.00000000      0.00000000
   C        1.61789491      4.56147329      3.26541368      0.00000000      0.00000000      0.00000000      0.00000000      0.00000000      0.00000000
   C        1.61789491      3.06147329      4.76541368      0.00000000      0.00000000      0.00000000      0.00000000      0.00000000      0.00000000
   C        0.11789491      4.56147329      4.76541368      0.00000000      0.00000000      0.00000000      0.00000000      0.00000000      0.00000000
   C        0.86789491      3.81147329      4.01541368      0.00000000      0.00000000      0.00000000      0.00000000      0.00000000      0.00000000
   C        2.36789491      5.31147329      4.01541368      0.00000000      0.00000000      0.00000000      0.00000000      0.00000000      0.00000000
   C        2.36789491      3.81147329      5.51541368      0.00000000      0.00000000      0.00000000      0.00000000      0.00000000      0.00000000
   C        0.86789491      5.31147329      5.51541368      0.00000000      0.00000000      0.00000000      0.00000000      0.00000000      0.00000000
   C        0.11789491      3.06147329      6.26541368      0.00000000      0.00000000      0.00000000      0.00000000      0.00000000      0.00000000
   C        1.61789491      4.56147329      6.26541368      0.00000000      0.00000000      0.00000000      0.00000000      0.00000000      0.00000000
   C        1.61789491      3.06147329      7.76541368      0.00000000      0.00000000      0.00000000      0.00000000      0.00000000      0.00000000
   C        0.11789491      4.56147329      7.76541368      0.00000000      0.00000000      0.00000000      0.00000000      0.00000000      0.00000000
   C        0.86789491      3.81147329      7.01541368      0.00000000      0.00000000      0.00000000      0.00000000      0.00000000      0.00000000
   C        2.36789491      5.31147329      7.01541368      0.00000000      0.00000000      0.00000000      0.00000000      0.00000000      0.00000000
   C        2.36789491      3.81147329      8.51541368      0.00000000      0.00000000      0.00000000      0.00000000      0.00000000      0.00000000
   C        0.86789491      5.31147329      8.51541368      0.00000000      0.00000000      0.00000000      0.00000000      0.00000000      0.00000000
   C        0.11789491      3.06147329      9.26541368      0.00000000      0.00000000      0.00000000      0.00000000      0.00000000      0.00000000
   C        1.61789491      4.56147329      9.26541368      0.00000000      0.00000000      0.00000000      0.00000000      0.00000000      0.00000000
   C        0.11789491      6.06147329      0.26541368      0.00000000      0.00000000      0.00000000      0.00000000      0.00000000      0.00000000
   C        1.61789491      7.56147329      0.26541368      0.00000000      0.00000000      0.00000000      0.00000000      0.00000000      0.00000000
   C        1.61789491      6.06147329      1.76541368      0.00000000      0.00000000      0.00000000      0.00000000      0.00000000      0.00000000
   C        0.11789491      7.56147329      1.76541368      0.00000000      0.00000000      0.00000000      0.00000000      0.00000000      0.00000000
   C        0.86789491      6.81147329      1.01541368      0.00000000      0.00000000      0.00000000      0.00000000      0.00000000      0.00000000
   C        2.36789491      8.31147329      1.01541368      0.00000000      0.00000000      0.00000000      0.00000000      0.00000000      0.00000000
   C        2.36789491      6.81147329      2.51541368      0.00000000      0.00000000      0.00000000      0.00000000      0.00000000      0.00000000
   C        0.86789491      8.31147329      2.51541368      0.00000000      0.00000000      0.00000000      0.00000000      0.00000000      0.00000000
   C        0.11789491      6.06147329      3.26541368      0.00000000      0.00000000      0.00000000      0.00000000      0.00000000      0.00000000
   C        1.61789491      7.56147329      3.26541368      0.00000000      0.00000000      0.00000000      0.00000000      0.00000000      0.00000000
   C        1.61789491      6.06147329      4.76541368      0.00000000      0.00000000      0.00000000      0.00000000      0.00000000      0.00000000
   C        0.11789491      7.56147329      4.76541368      0.00000000      0.00000000      0.00000000      0.00000000      0.00000000      0.00000000
   C        0.86789491      6.81147329      4.01541368      0.00000000      0.00000000      0.00000000      0.00000000      0.00000000      0.00000000
   C        2.36789491      8.31147329      4.01541368      0.00000000      0.00000000      0.00000000      0.00000000      0.00000000      0.00000000
   C        2.36789491      6.81147329      5.51541368      0.00000000      0.00000000      0.00000000      0.00000000      0.00000000      0.00000000
   C        0.86789491      8.31147329      5.51541368      0.00000000      0.00000000      0.00000000      0.00000000      0.00000000      0.00000000
   C        0.11789491      6.06147329      6.26541368      0.00000000      0.00000000      0.00000000      0.00000000      0.00000000      0.00000000
   C        1.61789491      7.56147329      6.26541368      0.00000000      0.00000000      0.00000000      0.00000000      0.00000000      0.00000000
   C        1.61789491      6.06147329      7.76541368      0.00000000      0.00000000      0.00000000      0.00000000      0.00000000      0.00000000
   C        0.11789491      7.56147329      7.76541368      0.00000000      0.00000000      0.00000000      0.00000000      0.00000000      0.00000000
   C        0.86789491      6.81147329      7.01541368      0.00000000      0.00000000      0.00000000      0.00000000      0.00000000      0.00000000
   C        2.36789491      8.31147329      7.01541368      0.00000000      0.00000000      0.00000000      0.00000000      0.00000000      0.00000000
   C        2.36789491      6.81147329      8.51541368      0.00000000      0.00000000      0.00000000      0.00000000      0.00000000      0.00000000
   C        0.86789491      8.31147329      8.51541368      0.00000000      0.00000000      0.00000000      0.00000000      0.00000000      0.00000000
   C        0.11789491      6.06147329      9.26541368      0.00000000      0.00000000      0.00000000      0.00000000      0.00000000      0.00000000
   C        1.61789491      7.56147329      9.26541368      0.00000000      0.00000000      0.00000000      0.00000000      0.00000000      0.00000000
   C        0.11789491      9.06147329      0.26541368      0.00000000      0.00000000      0.00000000      0.00000000      0.00000000      0.00000000
   C        1.61789491      9.06147329      1.76541368      0.00000000      0.00000000      0.00000000      0.00000000      0.00000000      0.00000000
   C        0.86789491      9.81147329      1.01541368      0.00000000      0.00000000      0.00000000      0.00000000      0.00000000      0.00000000
   C        2.36789491      9.81147329      2.51541368      0.00000000      0.00000000      0.00000000      0.00000000      0.00000000      0.00000000
   C        0.11789491      9.06147329      3.26541368      0.00000000      0.00000000      0.00000000      0.00000000      0.00000000      0.00000000
   C        1.61789491      9.06147329      4.76541368      0.00000000      0.00000000      0.00000000      0.00000000      0.00000000      0.00000000
   C        0.86789491      9.81147329      4.01541368      0.00000000      0.00000000      0.00000000      0.00000000      0.00000000      0.00000000
   C        2.36789491      9.81147329      5.51541368      0.00000000      0.00000000      0.00000000      0.00000000      0.00000000      0.00000000
   C        0.11789491      9.06147329      6.26541368      0.00000000      0.00000000      0.00000000      0.00000000      0.00000000      0.00000000
   C        1.61789491      9.06147329      7.76541368      0.00000000      0.00000000      0.00000000      0.00000000      0.00000000      0.00000000
   C        0.86789491      9.81147329      7.01541368      0.00000000      0.00000000      0.00000000      0.00000000      0.00000000      0.00000000
   C        2.36789491      9.81147329      8.51541368      0.00000000      0.00000000      0.00000000      0.00000000      0.00000000      0.00000000
   C        0.11789491      9.06147329      9.26541368      0.00000000      0.00000000      0.00000000      0.00000000      0.00000000      0.00000000
   C        3.11789491      0.06147329      0.26541368      0.00000000      0.00000000      0.00000000      0.00000000      0.00000000      0.00000000
   C        4.61789491      1.56147329      0.26541368      0.00000000      0.00000000      0.00000000      0.00000000      0.00000000      0.00000000
   C        4.61789491      0.06147329      1.76541368      0.00000000      0.00000000      0.00000000      0.00000000      0.00000000      0.00000000
   C        3.11789491      1.56147329      1.76541368      0.00000000      0.00000000      0.00000000      0.00000000      0.00000000      0.00000000
   C        3.86789491      0.81147329      1.01541368      0.00000000      0.00000000      0.00000000      0.00000000      0.00000000      0.00000000
   C        5.36789491      2.31147329      1.01541368      0.00000000      0.00000000      0.00000000      0.00000000      0.00000000      0.00000000
   C        5.36789491      0.81147329      2.51541368      0.00000000      0.00000000      0.00000000      0.00000000      0.00000000      0.00000000
   C        3.86789491      2.31147329      2.51541368      0.00000000      0.00000000      0.00000000      0.00000000      0.00000000      0.00000000
   C        3.11789491      0.06147329      3.26541368      0.00000000      0.00000000      0.00000000      0.00000000      0.00000000      0.00000000
   C        4.61789491      1.56147329      3.26541368      0.00000000      0.00000000      0.00000000      0.00000000      0.00000000      0.00000000
   C        4.61789491      0.06147329      4.76541368      0.00000000      0.00000000      0.00000000      0.00000000      0.00000000      0.00000000
   C        3.11789491      1.56147329      4.76541368      0.00000000      0.00000000      0.00000000      0.00000000      0.00000000      0.00000000
   C        3.86789491      0.81147329      4.01541368      0.00000000      0.00000000      0.00000000      0.00000000      0.00000000      0.00000000
   C        5.36789491      2.31147329      4.01541368      0.00000000      0.00000000      0.00000000      0.00000000      0.00000000      0.00000000
   C        5.36789491      0.81147329      5.51541368      0.00000000      0.00000000      0.00000000      0.00000000      0.00000000      0.00000000
   C        3.86789491      2.31147329      5.51541368      0.00000000      0.00000000      0.00000000      0.00000000      0.00000000      0.00000000
   C        3.11789491      0.06147329      6.26541368      0.00000000      0.00000000      0.00000000      0.00000000      0.00000000      0.00000000
   C        4.61789491      1.56147329      6.26541368      0.00000000      0.00000000      0.00000000      0.00000000      0.00000000      0.00000000
   C        4.61789491      0.06147329      7.76541368      0.00000000      0.00000000      0.00000000      0.00000000      0.00000000      0.00000000
   C        3.11789491      1.56147329      7.76541368      0.00000000      0.00000000      0.00000000      0.00000000      0.00000000      0.00000000
   C        3.86789491      0.81147329      7.01541368      0.00000000      0.00000000      0.00000000      0.00000000      0.00000000      0.00000000
   C        5.36789491      2.31147329      7.01541368      0.00000000      0.00000000      0.00000000      0.00000000      0.00000000      0.00000000
   C        5.36789491      0.81147329      8.51541368      0.00000000      0.00000000      0.00000000      0.00000000      0.00000000      0.00000000
   C        3.86789491      2.31147329      8.51541368      0.00000000      0.00000000      0.00000000      0.00000000      0.00000000      0.00000000
   C        3.11789491      0.06147329      9.26541368      0.00000000      0.00000000      0.00000000      0.00000000      0.00000000      0.00000000
   C        4.61789491      1.56147329      9.26541368      0.00000000      0.00000000      0.00000000      0.00000000      0.00000000      0.00000000
   C        3.11789491      3.06147329      0.26541368      0.00000000      0.00000000      0.00000000      0.00000000      0.00000000      0.00000000
   C        4.61789491      4.56147329      0.26541368      0.00000000      0.00000000      0.00000000      0.00000000      0.00000000      0.00000000
   C        4.61789491      3.06147329      1.76541368      0.00000000      0.00000000      0.00000000      0.00000000      0.00000000      0.00000000
   C        3.11789491      4.56147329      1.76541368      0.00000000      0.00000000      0.00000000      0.00000000      0.00000000      0.00000000
   C        3.86789491      3.81147329      1.01541368      0.00000000      0.00000000      0.00000000      0.00000000      0.00000000      0.00000000
   C        5.36789491      5.31147329      1.01541368      0.00000000      0.00000000      0.00000000      0.00000000      0.00000000      0.00000000
   C        5.36789491      3.81147329      2.51541368      0.00000000      0.00000000      0.00000000      0.00000000      0.00000000      0.00000000
   C        3.86789491      5.31147329      2.51541368      0.00000000      0.00000000      0.00000000      0.00000000      0.00000000      0.00000000
   C        3.11789491      3.06147329      3.26541368      0.00000000      0.00000000      0.00000000      0.00000000      0.00000000      0.00000000
   C        4.61789491      4.56147329      3.26541368      0.00000000      0.00000000      0.00000000      0.00000000      0.00000000      0.00000000
   C        4.61789491      3.06147329      4.76541368      0.00000000      0.00000000      0.00000000      0.00000000      0.00000000      0.00000000
   C        3.11789491      4.56147329      4.76541368      0.00000000      0.00000000      0.00000000      0.00000000      0.00000000      0.00000000
   C        3.86789491      3.81147329      4.01541368      0.00000000      0.00000000      0.00000000      0.00000000      0.00000000      0.00000000
   C        5.36789491      5.31147329      4.01541368      0.00000000      0.00000000      0.00000000      0.00000000      0.00000000      0.00000000
   C        5.36789491      3.81147329      5.51541368      0.00000000      0.00000000      0.00000000      0.00000000      0.00000000      0.00000000
   C        3.86789491      5.31147329      5.51541368      0.00000000      0.00000000      0.00000000      0.00000000      0.00000000      0.00000000
   C        3.11789491      3.06147329      6.26541368      0.00000000      0.00000000      0.00000000      0.00000000      0.00000000      0.00000000
   C        4.61789491      4.56147329      6.26541368      0.00000000      0.00000000      0.00000000      0.00000000      0.00000000      0.00000000
   C        4.61789491      3.06147329      7.76541368      0.00000000      0.00000000      0.00000000      0.00000000      0.00000000      0.00000000
   C        3.11789491      4.56147329      7.76541368      0.00000000      0.00000000      0.00000000      0.00000000      0.00000000      0.00000000
   C        3.86789491      3.81147329      7.01541368      0.00000000      0.00000000      0.00000000      0.00000000      0.00000000      0.00000000
   C        5.36789491      5.31147329      7.01541368      0.00000000      0.00000000      0.00000000      0.00000000      0.00000000      0.00000000
   C        5.36789491      3.81147329      8.51541368      0.00000000      0.00000000      0.00000000      0.00000000      0.00000000      0.00000000
   C        3.86789491      5.31147329      8.51541368      0.00000000      0.00000000      0.00000000      0.00000000      0.00000000      0.00000000
   C        3.11789491      3.06147329      9.26541368      0.00000000      0.00000000      0.00000000      0.00000000      0.00000000      0.00000000
   C        4.61789491      4.56147329      9.26541368      0.00000000      0.00000000      0.00000000      0.00000000      0.00000000      0.00000000
   C        3.11789491      6.06147329      0.26541368      0.00000000      0.00000000      0.00000000      0.00000000      0.00000000      0.00000000
   C        4.61789491      7.56147329      0.26541368      0.00000000      0.00000000      0.00000000      0.00000000      0.00000000      0.00000000
   C        4.61789491      6.06147329      1.76541368      0.00000000      0.00000000      0.00000000      0.00000000      0.00000000      0.00000000
   C        3.11789491      7.56147329      1.76541368      0.00000000      0.00000000      0.00000000      0.00000000      0.00000000      0.00000000
   C        3.86789491      6.81147329      1.01541368      0.00000000      0.00000000      0.00000000      0.00000000      0.00000000      0.00000000
   C        5.36789491      8.31147329      1.01541368      0.00000000      0.00000000      0.00000000      0.00000000      0.00000000      0.00000000
   C        5.36789491      6.81147329      2.51541368      0.00000000      0.00000000      0.00000000      0.00000000      0.00000000      0.00000000
   C        3.86789491      8.31147329      2.51541368      0.00000000      0.00000000      0.00000000      0.00000000      0.00000000      0.00000000
   C        3.11789491      6.06147329      3.26541368      0.00000000      0.00000000      0.00000000      0.00000000      0.00000000      0.00000000
   C        4.61789491      7.56147329      3.26541368      0.00000000      0.00000000      0.00000000      0.00000000      0.00000000      0.00000000
   C        4.61789491      6.06147329      4.76541368      0.00000000      0.00000000      0.00000000      0.00000000      0.00000000      0.00000000
   C        3.11789491      7.56147329      4.76541368      0.00000000      0.00000000      0.00000000      0.00000000      0.00000000      0.00000000
   C        3.86789491      6.81147329      4.01541368      0.00000000      0.00000000      0.00000000      0.00000000      0.00000000      0.00000000
   C        5.36789491      8.31147329      4.01541368      0.00000000      0.00000000      0.00000000      0.00000000      0.00000000      0.00000000
   C        5.36789491      6.81147329      5.51541368      0.00000000      0.00000000      0.00000000      0.00000000      0.00000000      0.00000000
   C        3.86789491      8.31147329      5.51541368      0.00000000      0.00000000      0.00000000      0.00000000      0.00000000      0.00000000
   C        3.11789491      6.06147329      6.26541368      0.00000000      0.00000000      0.00000000      0.00000000      0.00000000      0.00000000
   C        4.61789491      7.56147329      6.26541368      0.00000000      0.00000000      0.00000000      0.00000000      0.00000000      0.00000000
   C        4.61789491      6.06147329      7.76541368      0.00000000      0.00000000      0.00000000      0.00000000      0.00000000      0.00000000
   C        3.11789491      7.56147329      7.76541368      0.00000000      0.00000000      0.00000000      0.00000000      0.00000000      0.00000000
   C        3.86789491      6.81147329      7.01541368      0.00000000      0.00000000      0.00000000      0.00000000      0.00000000      0.00000000
   C        5.36789491      8.31147329      7.01541368      0.00000000      0.00000000      0.00000000      0.00000000      0.00000000      0.00000000
   C        5.36789491      6.81147329      8.51541368      0.00000000      0.00000000      0.00000000      0.00000000      0.00000000      0.00000000
   C        3.86789491      8.31147329      8.51541368      0.00000000      0.00000000      0.00000000      0.00000000      0.00000000      0.00000000
   C        3.11789491      6.06147329      9.26541368      0.00000000      0.00000000      0.00000000      0.00000000      0.00000000      0.00000000
   C        4.61789491      7.56147329      9.26541368      0.00000000      0.00000000      0.00000000      0.00000000      0.00000000      0.00000000
   C        3.11789491      9.06147329      0.26541368      0.00000000      0.00000000      0.00000000      0.00000000      0.00000000      0.00000000
   C        4.61789491      9.06147329      1.76541368      0.00000000      0.00000000      0.00000000      0.00000000      0.00000000      0.00000000
   C        3.86789491      9.81147329      1.01541368      0.00000000      0.00000000      0.00000000      0.00000000      0.00000000      0.00000000
   C        5.36789491      9.81147329      2.51541368      0.00000000      0.00000000      0.00000000      0.00000000      0.00000000      0.00000000
   C        3.11789491      9.06147329      3.26541368      0.00000000      0.00000000      0.00000000      0.00000000      0.00000000      0.00000000
   C        4.61789491      9.06147329      4.76541368      0.00000000      0.00000000      0.00000000      0.00000000      0.00000000      0.00000000
   C        3.86789491      9.81147329      4.01541368      0.00000000      0.00000000      0.00000000      0.00000000      0.00000000      0.00000000
   C        5.36789491      9.81147329      5.51541368      0.00000000      0.00000000      0.00000000      0.00000000      0.00000000      0.00000000
   C        3.11789491      9.06147329      6.26541368      0.00000000      0.00000000      0.00000000      0.00000000      0.00000000      0.00000000
   C        4.61789491      9.06147329      7.76541368      0.00000000      0.00000000      0.00000000      0.00000000      0.00000000      0.00000000
   C        3.86789491      9.81147329      7.01541368      0.00000000      0.00000000      0.00000000      0.00000000      0.00000000      0.00000000
   C        5.36789491      9.81147329      8.51541368      0.00000000      0.00000000      0.00000000      0.00000000      0.00000000      0.00000000
   C        3.11789491      9.06147329      9.26541368      0.00000000      0.00000000      0.00000000      0.00000000      0.00000000      0.00000000
   C        6.11789491      0.06147329      0.26541368      0.00000000      0.00000000      0.00000000      0.00000000      0.00000000      0.00000000
   C        7.61789491      1.56147329      0.26541368      0.00000000      0.00000000      0.00000000      0.00000000      0.00000000      0.00000000
   C        7.61789491      0.06147329      1.76541368      0.00000000      0.00000000      0.00000000      0.00000000      0.00000000      0.00000000
   C        6.11789491      1.56147329      1.76541368      0.00000000      0.00000000      0.00000000      0.00000000      0.00000000      0.00000000
   C        6.86789491      0.81147329      1.01541368      0.00000000      0.00000000      0.00000000      0.00000000      0.00000000      0.00000000
   C        8.36789491      2.31147329      1.01541368      0.00000000      0.00000000      0.00000000      0.00000000      0.00000000      0.00000000
   C        8.36789491      0.81147329      2.51541368      0.00000000      0.00000000      0.00000000      0.00000000      0.00000000      0.00000000
   C        6.86789491      2.31147329      2.51541368      0.00000000      0.00000000      0.00000000      0.00000000      0.00000000      0.00000000
   C        6.11789491      0.06147329      3.26541368      0.00000000      0.00000000      0.00000000      0.00000000      0.00000000      0.00000000
   C        7.61789491      1.56147329      3.26541368      0.00000000      0.00000000      0.00000000      0.00000000      0.00000000      0.00000000
   C        7.61789491      0.06147329      4.76541368      0.00000000      0.00000000      0.00000000      0.00000000      0.00000000      0.00000000
   C        6.11789491      1.56147329      4.76541368      0.00000000      0.00000000      0.00000000      0.00000000      0.00000000      0.00000000
   C        6.86789491      0.81147329      4.01541368      0.00000000      0.00000000      0.00000000      0.00000000      0.00000000      0.00000000
   C        8.36789491      2.31147329      4.01541368      0.00000000      0.00000000      0.00000000      0.00000000      0.00000000      0.00000000
   C        8.36789491      0.81147329      5.51541368      0.00000000      0.00000000      0.00000000      0.00000000      0.00000000      0.00000000