256
   time=   0 (fs)  Energy=  0 (eV)
BOX       10.00000000      0.00000000      0.00000000      0.00000000     10.00000000      0.00000000      0.00000000      0.00000000     10.00000000
  Cu        0.15752990      0.24127580      0.09698194      0.00000000      0.00000000      0.00000000      0.00000000      0.00000000      0.00000000
  Cu        1.40752990      1.49127580      0.09698194      0.00000000      0.00000000      0.00000000      0.00000000      0.00000000      0.00000000
  Cu        1.40752990      0.24127580      1.34698194      0.00000000      0.00000000      0.00000000      0.00000000      0.00000000      0.00000000
  Cu        0.15752990      1.49127580      1.34698194      0.00000000      0.00000000      0.00000000      0.00000000      0.00000000      0.00000000
  Cu        0.15752990      0.24127580      2.59698194      0.00000000      0.00000000      0.00000000      0.00000000      0.00000000      0.00000000
  Cu        1.40752990      1.49127580      2.59698194      0.00000000      0.00000000      0.00000000      0.00000000      0.00000000      0.00000000
  Cu        1.40752990      0.24127580      3.84698194      0.00000000      0.00000000      0.00000000      0.00000000      0.00000000      0.00000000
  Cu        0.15752990      1.49127580      3.84698194      0.00000000      0.00000000      0.00000000      0.00000000      0.00000000      0.00000000
  Cu        0.15752990      0.24127580      5.09698194      0.00000000      0.00000000      0.00000000      0.00000000      0.00000000      0.00000000
  Cu        1.40752990      1.49127580      5.09698194      0.00000000      0.00000000      0.00000000      0.00000000      0.00000000      0.00000000
  Cu        1.40752990      0.24127580      6.34698194      0.00000000      0.00000000      0.00000000      0.00000000      0.00000000      0.00000000
  Cu        0.15752990      1.49127580      6.34698194      0.00000000      0.00000000      0.00000000      0.00000000      0.00000000      0.00000000
  Cu        0.15752990      0.24127580      7.59698194      0.00000000      0.00000000      0.00000000      0.00000000      0.00000000      0.00000000
  Cu        1.40752990      1.49127580      7.59698194      0.00000000      0.00000000      0.00000000      0.00000000      0.00000000      0.00000000
  Cu        1.40752990      0.24127580      8.84698194      0.00000000      0.00000000      0.00000000      0.00000000      0.00000000      0.00000000
  Cu        0.15752990      1.49127580      8.84698194      0.00000000      0.00000000      0.00000000      0.00000000      0.00000000      0.00000000
  Cu        0.15752990      2.74127580      0.09698194      0.00000000      0.00000000      0.00000000      0.00000000      0.00000000      0.00000000
  Cu        1.40752990      3.99127580      0.09698194      0.00000000      0.00000000      0.00000000      0.00000000      0.00000000      0.00000000
  Cu        1.40752990      2.74127580      1.34698194      0.00000000      0.00000000      0.00000000      0.00000000      0.00000000      0.00000000
  Cu        0.15752990      3.99127580      1.34698194      0.00000000      0.00000000      0.00000000      0.00000000      0.00000000      0.00000000
  Cu        0.15752990      2.74127580      2.59698194      0.00000000      0.00000000      0.00000000      0.00000000      0.00000000      0.00000000
  Cu        1.40752990      3.99127580      2.59698194      0.00000000      0.00000000      0.00000000      0.00000000      0.00000000      0.00000000
  Cu        1.40752990      2.74127580      3.84698194      0.00000000      0.00000000      0.00000000      0.00000000      0.00000000      0.00000000
  Cu        0.15752990      3.99127580      3.84698194      0.00000000      0.00000000      0.00000000      0.00000000      0.00000000      0.00000000
  Cu        0.15752990      2.74127580      5.09698194      0.00000000      0.00000000      0.00000000      0.00000000      0.00000000      0.00000000
  Cu        1.40752990      3.99127580      5.09698194      0.00000000      0.00000000      0.00000000      0.00000000      0.00000000      0.00000000
  Cu        1.40752990      2.74127580      6.34698194      0.00000000      0.00000000      0.00000000      0.00000000      0.00000000      0.00000000
  Cu        0.15752990      3.99127580      6.34698194      0.00000000      0.00000000      0.00000000      0.00000000      0.00000000      0.00000000
  Cu        0.15752990      2.74127580      7.59698194      0.00000000      0.00000000      0.00000000      0.00000000      0.00000000      0.00000000
  Cu        1.40752990      3.99127580      7.59698194      0.00000000      0.00000000      0.00000000      0.00000000      0.00000000      0.00000000
  Cu        1.40752990      2.74127580      8.84698194      0.00000000      0.00000000      0.00000000      0.00000000      0.00000000      0.00000000
  Cu        0.15752990      3.99127580      8.84698194      0.00000000      0.00000000      0.00000000      0.00000000      0.00000000      0.00000000
  Cu        0.15752990      5.24127580      0.09698194      0.00000000      0.00000000      0.00000000      0.00000000      0.00000000      0.00000000
  Cu        1.40752990      6.49127580      0.09698194      0.00000000      0.00000000      0.00000000      0.00000000      0.00000000      0.00000000
  Cu        1.40752990      5.24127580      1.34698194      0.00000000      0.00000000      0.00000000      0.00000000      0.00000000      0.00000000
  Cu        0.15752990      6.49127580      1.34698194      0.00000000      0.00000000      0.00000000      0.00000000      0.00000000      0.00000000
  Cu        0.15752990      5.24127580      2.59698194      0.00000000      0.00000000      0.00000000      0.00000000      0.00000000      0.00000000
  Cu        1.40752990      6.49127580      2.59698194      0.00000000      0.00000000      0.00000000      0.00000000      0.00000000      0.00000000
  Cu        1.40752990      5.24127580      3.84698194      0.00000000      0.00000000      0.00000000      0.00000000      0.00000000      0.00000000
  Cu        0.15752990      6.49127580      3.84698194      0.00000000      0.00000000      0.00000000      0.00000000      0.00000000      0.00000000
  Cu        0.15752990      5.24127580      5.09698194      0.00000000      0.00000000      0.00000000      0.00000000      0.00000000      0.00000000
  Cu        1.40752990      6.49127580      5.09698194      0.00000000      0.00000000      0.00000000      0.00000000      0.00000000      0.00000000
  Cu        1.40752990      5.24127580      6.34698194      0.00000000      0.00000000      0.00000000      0.00000000      0.00000000      0.00000000
  Cu        0.15752990      6.49127580      6.34698194      0.00000000      0.00000000      0.00000000      0.00000000      0.00000000      0.00000000
  Cu        0.15752990      5.24127580      7.59698194      0.00000000      0.00000000      0.00000000      0.00000000      0.00000000      0.00000000
  Cu        1.40752990      6.49127580      7.59698194      0.00000000      0.00000000      0.00000000      0.00000000      0.00000000      0.00000000
  Cu        1.40752990      5.24127580      8.84698194      0.00000000      0.00000000      0.00000000      0.00000000      0.00000000      0.00000000
  Cu        0.15752990      6.49127580      8.84698194      0.00000000      0.00000000      0.00000000      0.00000000      0.00000000      0.00000000
  Cu        0.15752990      7.74127580      0.09698194      0.00000000      0.00000000      0.00000000      0.00000000      0.00000000      0.00000000
  Cu        1.40752990      8.99127580      0.09698194      0.00000000      0.00000000      0.00000000      0.00000000      0.00000000      0.00000000
  Cu        1.40752990      7.74127580      1.34698194      0.00000000      0.00000000      0.00000000      0.00000000      0.00000000      0.00000000
  Cu        0.15752990      8.99127580      1.34698194      0.00000000      0.00000000      0.00000000      0.00000000      0.00000000      0.00000000
  Cu        0.15752990      7.74127580      2.59698194      0.00000000      0.00000000      0.00000000      0.00000000      0.00000000      0.00000000
  Cu        1.40752990      8.99127580      2.59698194      0.00000000      0.00000000      0.00000000      0.00000000      0.00000000      0.00000000
  Cu        1.40752990      7.74127580      3.84698194      0.00000000      0.00000000      0.00000000      0.00000000      0.00000000      0.00000000
  Cu        0.15752990      8.99127580      3.84698194      0.00000000      0.00000000      0.00000000      0.00000000      0.00000000      0.00000000
  Cu        0.15752990      7.74127580      5.09698194      0.00000000      0.00000000      0.00000000      0.00000000      0.00000000      0.00000000
  Cu        1.40752990      8.99127580      5.09698194      0.00000000      0.00000000      0.00000000      0.00000000      0.00000000      0.00000000
  Cu        1.40752990      7.74127580      6.34698194      0.00000000      0.00000000      0.00000000      0.00000000      0.00000000      0.00000000
  Cu        0.15752990      8.99127580      6.34698194      0.00000000      0.00000000      0.00000000      0.00000000      0.00000000      0.00000000
  Cu        0.15752990      7.74127580      7.59698194      0.00000000      0.00000000      0.00000000      0.00000000      0.00000000      0.00000000
  Cu        1.40752990      8.99127580      7.59698194      0.00000000      0.00000000      0.00000000      0.00000000      0.00000000      0.00000000
  Cu        1.40752990      7.74127580      8.84698194      0.00000000      0.00000000      0.00000000      0.00000000      0.00000000      0.00000000
  Cu        0.15752990      8.99127580      8.84698194      0.00000000      0.00000000      0.00000000      0.00000000      0.00000000      0.00000000
  Cu        2.65752990      0.24127580      0.09698194      0.00000000      0.00000000      0.00000000      0.00000000      0.00000000      0.00000000
  Cu        3.90752990      1.49127580      0.09698194      0.00000000      0.00000000      0.00000000      0.00000000      0.00000000      0.00000000
  Cu        3.90752990      0.24127580      1.34698194      0.00000000      0.00000000      0.00000000      0.00000000      0.00000000      0.00000000
  Cu        2.65752990      1.49127580      1.34698194      0.00000000      0.00000000      0.00000000      0.00000000      0.00000000      0.00000000
  Cu        2.65752990      0.24127580      2.59698194      0.00000000      0.00000000      0.00000000      0.00000000      0.00000000      0.00000000
  Cu        3.90752990      1.49127580      2.59698194      0.00000000      0.00000000      0.00000000      0.00000000      0.00000000      0.00000000
  Cu        3.90752990      0.24127580      3.84698194      0.00000000      0.00000000      0.00000000      0.00000000      0.00000000      0.00000000
  Cu        2.65752990      1.49127580      3.84698194      0.00000000      0.00000000      0.00000000      0.00000000      0.00000000      0.00000000
  Cu        2.65752990      0.24127580      5.09698194      0.00000000      0.00000000      0.00000000      0.00000000      0.00000000      0.00000000
  Cu        3.90752990      1.49127580      5.09698194      0.00000000      0.00000000      0.00000000      0.00000000      0.00000000      0.00000000
  Cu        3.90752990      0.24127580      6.34698194      0.00000000      0.00000000      0.00000000      0.00000000      0.00000000      0.00000000
  Cu        2.65752990      1.49127580      6.34698194      0.00000000      0.00000000      0.00000000      0.00000000      0.00000000      0.00000000
  Cu        2.65752990      0.24127580      7.59698194      0.00000000      0.00000000      0.00000000      0.00000000      0.00000000      0.00000000
  Cu        3.90752990      1.49127580      7.59698194      0.00000000      0.00000000      0.00000000      0.00000000      0.00000000      0.00000000
  Cu        3.90752990      0.24127580      8.84698194      0.00000000      0.00000000      0.00000000      0.00000000      0.00000000      0.00000000
  Cu        2.65752990      1.49127580      8.84698194      0.00000000      0.00000000      0.00000000      0.00000000      0.00000000      0.00000000
  Cu        2.65752990      2.74127580      0.09698194      0.00000000      0.00000000      0.00000000      0.00000000      0.00000000      0.00000000
  Cu        3.90752990      3.99127580      0.09698194      0.00000000      0.00000000      0.00000000      0.00000000      0.00000000      0.00000000
  Cu        3.90752990      2.74127580      1.34698194      0.00000000      0.00000000      0.00000000      0.00000000      0.00000000      0.00000000
  Cu        2.65752990      3.99127580      1.34698194      0.00000000      0.00000000      0.00000000      0.00000000      0.00000000      0.00000000
  Cu        2.65752990      2.74127580      2.59698194      0.00000000      0.00000000      0.00000000      0.00000000      0.00000000      0.00000000
  Cu        3.90752990      3.99127580      2.59698194      0.00000000      0.00000000      0.00000000      0.00000000      0.00000000      0.00000000
  Cu        3.90752990      2.74127580      3.84698194      0.00000000      0.00000000      0.00000000      0.00000000      0.00000000      0.00000000
  Cu        2.65752990      3.99127580      3.84698194      0.00000000      0.00000000      0.00000000      0.00000000      0.00000000      0.00000000
  Cu        2.65752990      2.74127580      5.09698194      0.00000000      0.00000000      0.00000000      0.00000000      0.00000000      0.00000000
  Cu        3.90752990      3.99127580      5.09698194      0.00000000      0.00000000      0.00000000      0.00000000      0.00000000      0.00000000
  Cu        3.90752990      2.74127580      6.34698194      0.00000000      0.00000000      0.00000000      0.00000000      0.00000000      0.00000000
  Cu        2.65752990      3.99127580      6.34698194      0.00000000      0.00000000      0.00000000      0.00000000      0.00000000      0.00000000
  Cu        2.65752990      2.74127580      7.59698194      0.00000000      0.00000000      0.00000000      0.00000000      0.00000000      0.00000000
  Cu        3.90752990      3.99127580      7.59698194      0.00000000      0.00000000      0.00000000      0.00000000      0.00000000      0.00000000
  Cu        3.90752990      2.74127580      8.84698194      0.00000000      0.00000000      0.00000000      0.00000000      0.00000000      0.00000000
  Cu        2.65752990      3.99127580      8.84698194      0.00000000      0.00000000      0.00000000      0.00000000      0.00000000      0.00000000
  Cu        2.65752990      5.24127580      0.09698194      0.00000000      0.00000000      0.00000000      0.00000000      0.00000000      0.00000000
  Cu        3.90752990      6.49127580      0.09698194      0.00000000      0.00000000      0.00000000      0.00000000      0.00000000      0.00000000
  Cu        3.90752990      5.24127580      1.34698194      0.00000000      0.00000000      0.00000000      0.00000000      0.00000000      0.00000000
  Cu        2.65752990      6.49127580      1.34698194      0.00000000      0.00000000      0.00000000      0.00000000      0.00000000      0.00000000
  Cu        2.65752990      5.24127580      2.59698194      0.00000000      0.00000000      0.00000000      0.00000000      0.00000000      0.00000000
  Cu        3.90752990      6.49127580      2.59698194      0.00000000      0.00000000      0.00000000      0.00000000      0.00000000      0.00000000
  Cu        3.90752990      5.24127580      3.84698194      0.00000000      0.00000000      0.00000000      0.00000000      0.00000000      0.00000000
  Cu        2.65752990      6.49127580      3.84698194      0.00000000      0.00000000      0.00000000      0.00000000      0.00000000      0.00000000
  Cu        2.65752990      5.24127580      5.09698194      0.00000000      0.00000000      0.00000000      0.00000000      0.00000000      0.00000000
  Cu        3.90752990      6.49127580      5.09698194      0.00000000      0.00000000      0.00000000      0.00000000      0.00000000      0.00000000
  Cu        3.90752990      5.24127580      6.34698194      0.00000000      0.00000000      0.00000000      0.00000000      0.00000000      0.00000000
  Cu        2.65752990      6.49127580      6.34698194      0.00000000      0.00000000      0.00000000      0.00000000      0.00000000      0.00000000
  Cu        2.65752990      5.24127580      7.59698194      0.00000000      0.00000000      0.00000000      0.00000000      0.00000000      0.00000000
  Cu        3.90752990      6.49127580      7.59698194      0.00000000      0.00000000      0.00000000      0.00000000      0.00000000      0.00000000
  Cu        3.90752990      5.24127580      8.84698194      0.00000000      0.00000000      0.00000000      0.00000000      0.00000000      0.00000000
  Cu        2.65752990      6.49127580      8.84698194      0.00000000      0.00000000      0.00000000      0.00000000      0.00000000      0.00000000
  Cu        2.65752990      7.74127580      0.09698194      0.00000000      0.00000000      0.00000000      0.00000000      0.00000000      0.00000000
  Cu        3.90752990      8.99127580      0.09698194      0.00000000      0.00000000      0.00000000      0.00000000      0.00000000      0.00000000
  Cu        3.90752990      7.74127580      1.34698194      0.00000000      0.00000000      0.00000000      0.00000000      0.00000000      0.00000000
  Cu        2.65752990      8.99127580      1.34698194      0.00000000      0.00000000      0.00000000      0.00000000      0.00000000      0.00000000
  Cu        2.65752990      7.74127580      2.59698194      0.00000000      0.00000000      0.00000000      0.00000000      0.00000000      0.00000000
  Cu        3.90752990      8.99127580      2.59698194      0.00000000      0.00000000      0.00000000      0.00000000      0.00000000      0.00000000
  Cu        3.90752990      7.74127580      3.84698194      0.00000000      0.00000000      0.00000000      0.00000000      0.00000000      0.00000000
  Cu        2.65752990      8.99127580      3.84698194      0.00000000      0.00000000      0.00000000      0.00000000      0.00000000      0.00000000
  Cu        2.65752990      7.74127580      5.09698194      0.00000000      0.00000000      0.00000000      0.00000000      0.00000000      0.00000000
  Cu        3.90752990      8.99127580      5.09698194      0.00000000      0.00000000      0.00000000      0.00000000      0.00000000      0.00000000
  Cu        3.90752990      7.74127580      6.34698194      0.00000000      0.00000000      0.00000000      0.00000000      0.00000000      0.00000000
  Cu        2.65752990      8.99127580      6.34698194      0.00000000      0.00000000      0.00000000      0.00000000      0.00000000      0.00000000
  Cu        2.65752990      7.74127580      7.59698194      0.00000000      0.00000000      0.00000000      0.00000000      0.00000000      0.00000000
  Cu        3.90752990      8.99127580      7.59698194      0.00000000      0.00000000      0.00000000      0.00000000      0.00000000      0.00000000
  Cu        3.90752990      7.74127580      8.84698194      0.00000000      0.00000000      0.00000000      0.00000000      0.00000000      0.00000000
  Cu        2.65752990      8.99127580      8.84698194      0.00000000      0.00000000      0.00000000      0.00000000      0.00000000      0.00000000
  Cu        5.15752990      0.24127580      0.09698194      0.00000000      0.00000000      0.00000000      0.00000000      0.00000000      0.00000000
  Cu        6.40752990      1.49127580      0.09698194      0.00000000      0.00000000      0.00000000      0.00000000      0.00000000      0.00000000
  Cu        6.40752990      0.24127580      1.34698194      0.00000000      0.00000000      0.00000000      0.00000000      0.00000000      0.00000000
  Cu        5.15752990      1.49127580      1.34698194      0.00000000      0.00000000      0.00000000      0.00000000      0.00000000      0.00000000
  Cu        5.15752990      0.24127580      2.59698194      0.00000000      0.00000000      0.00000000      0.00000000      0.00000000      0.00000000
  Cu        6.40752990      1.49127580      2.59698194      0.00000000      0.00000000      0.00000000      0.00000000      0.00000000      0.00000000
  Cu        6.40752990      0.24127580      3.84698194      0.00000000      0.00000000      0.00000000      0.00000000      0.00000000      0.00000000
  Cu        5.15752990      1.49127580      3.84698194      0.00000000      0.00000000      0.00000000      0.00000000      0.00000000      0.00000000
  Cu        5.15752990      0.24127580      5.09698194      0.00000000      0.00000000      0.00000000      0.00000000      0.00000000      0.00000000
  Cu        6.40752990      1.49127580      5.09698194      0.00000000      0.00000000      0.00000000      0.00000000      0.00000000      0.00000000
  Cu        6.40752990      0.24127580      6.34698194      0.00000000      0.00000000      0.00000000      0.00000000      0.00000000      0.00000000
  Cu        5.15752990      1.49127580      6.34698194      0.00000000      0.00000000      0.00000000      0.00000000      0.00000000      0.00000000
  Cu        5.15752990      0.24127580      7.59698194      0.00000000      0.00000000      0.00000000      0.00000000      0.00000000      0.00000000
  Cu        6.40752990      1.49127580      7.59698194      0.00000000      0.00000000      0.00000000      0.00000000      0.00000000      0.00000000
  Cu        6.40752990      0.24127580      8.84698194      0.00000000      0.00000000      0.00000000      0.00000000      0.00000000      0.00000000
  Cu        5.15752990      1.49127580      8.84698194      0.00000000      0.00000000      0.00000000      0.00000000      0.00000000      0.00000000
  Cu        5.15752990      2.74127580      0.09698194      0.00000000      0.00000000      0.00000000      0.00000000      0.00000000      0.00000000
  Cu        6.40752990      3.99127580      0.09698194      0.00000000      0.00000000      0.00000000      0.00000000      0.00000000      0.00000000
  Cu        6.40752990      2.74127580      1.34698194      0.00000000      0.00000000      0.00000000      0.00000000      0.00000000      0.00000000
  Cu        5.15752990      3.99127580      1.34698194      0.00000000      0.00000000      0.00000000      0.00000000      0.00000000      0.00000000
  Cu        5.15752990      2.74127580      2.59698194      0.00000000      0.00000000      0.00000000      0.00000000      0.00000000      0.00000000
  Cu        6.40752990      3.99127580      2.59698194      0.00000000      0.00000000      0.00000000      0.00000000      0.00000000      0.00000000
  Cu        6.40752990      2.74127580      3.84698194      0.00000000      0.00000000      0.00000000      0.00000000      0.00000000      0.00000000
  Cu        5.15752990      3.99127580      3.84698194      0.00000000      0.00000000      0.00000000      0.00000000      0.00000000      0.00000000
  Cu        5.15752990      2.74127580      5.09698194      0.00000000      0.00000000      0.00000000      0.00000000      0.00000000      0.00000000
  Cu        6.40752990      3.99127580      5.09698194      0.00000000      0.00000000      0.00000000      0.00000000      0.00000000      0.00000000
  Cu        6.40752990      2.74127580      6.34698194      0.00000000      0.00000000      0.00000000      0.00000000      0.00000000      0.00000000
  Cu        5.15752990      3.99127580      6.34698194      0.00000000      0.00000000      0.00000000      0.00000000      0.00000000      0.00000000
  Cu        5.15752990      2.74127580      7.59698194      0.00000000      0.00000000      0.00000000      0.00000000      0.00000000      0.00000000
  Cu        6.40752990      3.99127580      7.59698194      0.00000000      0.00000000      0.00000000      0.00000000      0.00000000      0.00000000
  Cu        6.40752990      2.74127580      8.84698194      0.00000000      0.00000000      0.00000000      0.00000000      0.00000000      0.00000000
  Cu        5.15752990      3.99127580      8.84698194      0.00000000      0.00000000      0.00000000      0.00000000      0.00000000      0.00000000
  Cu        5.15752990      5.24127580      0.09698194      0.00000000      0.00000000      0.00000000      0.00000000      0.00000000      0.00000000
  Cu        6.40752990      6.49127580      0.09698194      0.00000000      0.00000000      0.00000000      0.00000000      0.00000000      0.00000000
  Cu        6.40752990      5.24127580      1.34698194      0.00000000      0.00000000      0.00000000      0.00000000      0.00000000      0.00000000
  Cu        5.15752990      6.49127580      1.34698194      0.00000000      0.00000000      0.00000000      0.00000000      0.00000000      0.00000000
  Cu        5.15752990      5.24127580      2.59698194      0.00000000      0.00000000      0.00000000      0.00000000      0.00000000      0.00000000
  Cu        6.40752990      6.49127580      2.59698194      0.00000000      0.00000000      0.00000000      0.00000000      0.00000000      0.00000000
  Cu        6.40752990      5.24127580      3.84698194      0.00000000      0.00000000      0.00000000      0.00000000      0.00000000      0.00000000
  Cu        5.15752990      6.49127580      3.84698194      0.00000000      0.00000000      0.00000000      0.00000000      0.00000000      0.00000000
  Cu        5.15752990      5.24127580      5.09698194      0.00000000      0.00000000      0.00000000      0.00000000      0.00000000      0.00000000
  Cu        6.40752990      6.49127580      5.09698194      0.00000000      0.00000000      0.00000000      0.00000000      0.00000000      0.00000000
  Cu        6.40752990      5.24127580      6.34698194      0.00000000      0.00000000      0.00000000      0.00000000      0.00000000      0.00000000
  Cu        5.15752990      6.49127580      6.34698194      0.00000000      0.00000000      0.00000000      0.00000000      0.00000000      0.00000000
  Cu        5.15752990      5.24127580      7.59698194      0.00000000      0.00000000      0.00000000      0.00000000      0.00000000      0.00000000
  Cu        6.40752990      6.49127580      7.59698194      0.00000000      0.00000000      0.00000000      0.00000000      0.00000000      0.00000000
  Cu        6.40752990      5.24127580      8.84698194      0.00000000      0.00000000      0.00000000      0.00000000      0.00000000      0.00000000
  Cu        5.15752990      6.49127580      8.84698194      0.00000000      0.00000000      0.00000000      0.00000000      0.00000000      0.00000000
  Cu        5.15752990      7.74127580      0.09698194      0.00000000      0.00000000      0.00000000      0.00000000      0.00000000      0.00000000
  Cu        6.40752990      8.99127580      0.09698194      0.00000000      0.00000000      0.00000000      0.00000000      0.00000000      0.00000000
  Cu        6.40752990      7.74127580      1.34698194      0.00000000      0.00000000      0.00000000      0.00000000      0.00000000      0.00000000
  Cu        5.15752990      8.99127580      1.34698194      0.00000000      0.00000000      0.00000000      0.00000000      0.00000000      0.00000000
  Cu        5.15752990      7.74127580      2.59698194      0.00000000      0.00000000      0.00000000      0.00000000      0.00000000      0.00000000
  Cu        6.40752990      8.99127580      2.59698194      0.00000000      0.00000000      0.00000000      0.00000000      0.00000000      0.00000000
  Cu        6.40752990      7.74127580      3.84698194      0.00000000      0.00000000      0.00000000      0.00000000      0.00000000      0.00000000
  Cu        5.15752990      8.99127580      3.84698194      0.00000000      0.00000000      0.00000000      0.00000000      0.00000000      0.00000000
  Cu        5.15752990      7.74127580      5.09698194      0.00000000      0.00000000      0.00000000      0.00000000      0.00000000      0.00000000
  Cu        6.40752990      8.99127580      5.09698194      0.00000000      0.00000000      0.00000000      0.00000000      0.00000000      0.00000000
  Cu        6.40752990      7.74127580      6.34698194      0.00000000      0.00000000      0.00000000      0.00000000      0.00000000      0.00000000
  Cu        5.15752990      8.99127580      6.34698194      0.00000000      0.00000000      0.00000000      0.00000000      0.00000000      0.00000000
  Cu        5.15752990      7.74127580      7.59698194      0.00000000      0.00000000      0.00000000      0.00000000      0.00000000      0.00000000
  Cu        6.40752990      8.99127580      7.59698194      0.00000000      0.00000000      0.00000000      0.00000000      0.00000000      0.00000000
  Cu        6.40752990      7.74127580      8.84698194      0.00000000      0.00000000      0.00000000      0.00000000      0.00000000      0.00000000
  Cu        5.15752990      8.99127580      8.84698194      0.00000000      0.00000000      0.00000000      0.00000000      0.00000000      0.00000000
  Cu        7.65752990      0.24127580      0.09698194      0.00000000      0.00000000      0.00000000      0.00000000      0.00000000      0.00000000
  Cu        8.90752990      1.49127580      0.09698194      0.00000000      0.00000000      0.00000000      0.00000000      0.00000000      0.00000000
  Cu        8.90752990      0.24127580      1.34698194      0.00000000      0.00000000      0.00000000      0.00000000      0.00000000      0.00000000
  Cu        7.65752990      1.49127580      1.34698194      0.00000000      0.00000000      0.00000000      0.00000000      0.00000000      0.00000000
  Cu        7.65752990      0.24127580      2.59698194      0.00000000      0.00000000      0.00000000      0.00000000      0.00000000      0.00000000