128
   time=   0.000000 (fs)  Energy=  0.000000 (eV)
BOX        12.66000000       0.00000000       0.00000000       0.00000000      12.66000000       0.00000000       0.00000000       0.00000000      12.66000000
    W          0.00000000       0.00000000       0.00000000       0.00000000       0.00000000       0.00000000       0.00000000       0.00000000       0.00000000
    W          1.58250000       1.58250000       1.58250000       0.00000000       0.00000000       0.00000000       0.00000000       0.00000000       0.00000000
    W          0.00000000       0.00000000       3.16500000       0.00000000       0.00000000       0.00000000       0.00000000       0.00000000       0.00000000
    W          1.58250000       1.58250000       4.74750000       0.00000000       0.00000000       0.00000000       0.00000000       0.00000000       0.00000000
    W          0.00000000       0.00000000       6.33000000       0.00000000       0.00000000       0.00000000       0.00000000       0.00000000       0.00000000
    W          1.58250000       1.58250000       7.91250000       0.00000000       0.00000000       0.00000000       0.00000000       0.00000000       0.00000000
    W          0.00000000       0.00000000       9.49500000       0.00000000       0.00000000       0.00000000       0.00000000       0.00000000       0.00000000
    W          1.58250000       1.58250000      11.07750000       0.00000000       0.00000000       0.00000000       0.00000000       0.00000000       0.00000000
    W          0.00000000       3.16500000       0.00000000       0.00000000       0.00000000       0.00000000       0.00000000       0.00000000       0.00000000
    W          1.58250000       4.74750000       1.58250000       0.00000000       0.00000000       0.00000000       0.00000000       0.00000000       0.00000000
    W          0.00000000       3.16500000       3.16500000       0.00000000       0.00000000       0.00000000       0.00000000       0.00000000       0.00000000
    W          1.58250000       4.74750000       4.74750000       0.00000000       0.00000000       0.00000000       0.00000000       0.00000000       0.00000000
    W          0.00000000       3.16500000       6.33000000       0.00000000       0.00000000       0.00000000       0.00000000       0.00000000       0.00000000
    W          1.58250000       4.74750000       7.91250000       0.00000000       0.00000000       0.00000000       0.00000000       0.00000000       0.00000000
    W          0.00000000       3.16500000       9.49500000       0.00000000       0.00000000       0.00000000       0.00000000       0.00000000       0.00000000
    W          1.58250000       4.74750000      11.07750000       0.00000000       0.00000000       0.00000000       0.00000000       0.00000000       0.00000000
    W          0.00000000       6.33000000       0.00000000       0.00000000       0.00000000       0.00000000       0.00000000       0.00000000       0.00000000
    W          1.58250000       7.91250000       1.58250000       0.00000000       0.00000000       0.00000000       0.00000000       0.00000000       0.00000000
    W          0.00000000       6.33000000       3.16500000       0.00000000       0.00000000       0.00000000       0.00000000       0.00000000       0.00000000
    W          1.58250000       7.91250000       4.74750000       0.00000000       0.00000000       0.00000000       0.00000000       0.00000000       0.00000000
    W          0.00000000       6.33000000       6.33000000       0.00000000       0.00000000       0.00000000       0.00000000       0.00000000       0.00000000
    W          1.58250000       7.91250000       7.91250000       0.00000000       0.00000000       0.00000000       0.00000000       0.00000000       0.00000000
    W          0.00000000       6.33000000       9.49500000       0.00000000       0.00000000       0.00000000       0.00000000       0.00000000       0.00000000
    W          1.58250000       7.91250000      11.07750000       0.00000000       0.00000000       0.00000000       0.00000000       0.00000000       0.00000000
    W          0.00000000       9.49500000       0.00000000       0.00000000       0.00000000       0.00000000       0.00000000       0.00000000       0.00000000
    W          1.58250000      11.07750000       1.58250000       0.00000000       0.00000000       0.00000000       0.00000000       0.00000000       0.00000000
    W          0.00000000       9.49500000       3.16500000       0.00000000       0.00000000       0.00000000       0.00000000       0.00000000       0.00000000
    W          1.58250000      11.07750000       4.74750000       0.00000000       0.00000000       0.00000000       0.00000000       0.00000000       0.00000000
    W          0.00000000       9.49500000       6.33000000       0.00000000       0.00000000       0.00000000       0.00000000       0.00000000       0.00000000
    W          1.58250000      11.07750000       7.91250000       0.00000000       0.00000000       0.00000000       0.00000000       0.00000000       0.00000000
    W          0.00000000       9.49500000       9.49500000       0.00000000       0.00000000       0.00000000       0.00000000       0.00000000       0.00000000
    W          1.58250000      11.07750000      11.07750000       0.00000000       0.00000000       0.00000000       0.00000000       0.00000000       0.00000000
    W          3.16500000       0.00000000       0.00000000       0.00000000       0.00000000       0.00000000       0.00000000       0.00000000       0.00000000
    W          4.74750000       1.58250000       1.58250000       0.00000000       0.00000000       0.00000000       0.00000000       0.00000000       0.00000000
    W          3.16500000       0.00000000       3.16500000       0.00000000       0.00000000       0.00000000       0.00000000       0.00000000       0.00000000
    W          4.74750000       1.58250000       4.74750000       0.00000000       0.00000000       0.00000000       0.00000000       0.00000000       0.00000000
    W          3.16500000       0.00000000       6.33000000       0.00000000       0.00000000       0.00000000       0.00000000       0.00000000       0.00000000
    W          4.74750000       1.58250000       7.91250000       0.00000000       0.00000000       0.00000000       0.00000000       0.00000000       0.00000000
    W          3.16500000       0.00000000       9.49500000       0.00000000       0.00000000       0.00000000       0.00000000       0.00000000       0.00000000
    W          4.74750000       1.58250000      11.07750000       0.00000000       0.00000000       0.00000000       0.00000000       0.00000000       0.00000000
    W          3.16500000       3.16500000       0.00000000       0.00000000       0.00000000       0.00000000       0.00000000       0.00000000       0.00000000
    W          4.74750000       4.74750000       1.58250000       0.00000000       0.00000000       0.00000000       0.00000000       0.00000000       0.00000000
    W          3.16500000       3.16500000       3.16500000       0.00000000       0.00000000       0.00000000       0.00000000       0.00000000       0.00000000
    W          4.74750000       4.74750000       4.74750000       0.00000000       0.00000000       0.00000000       0.00000000       0.00000000       0.00000000
    W          3.16500000       3.16500000       6.33000000       0.00000000       0.00000000       0.00000000       0.00000000       0.00000000       0.00000000
    W          4.74750000       4.74750000       7.91250000       0.00000000       0.00000000       0.00000000       0.00000000       0.00000000       0.00000000
    W          3.16500000       3.16500000       9.49500000       0.00000000       0.00000000       0.00000000       0.00000000       0.00000000       0.00000000
    W          4.74750000       4.74750000      11.07750000       0.00000000       0.00000000       0.00000000       0.00000000       0.00000000       0.00000000
    W          3.16500000       6.33000000       0.00000000       0.00000000       0.00000000       0.00000000       0.00000000       0.00000000       0.00000000
    W          4.74750000       7.91250000       1.58250000       0.00000000       0.00000000       0.00000000       0.00000000       0.00000000       0.00000000
    W          3.16500000       6.33000000       3.16500000       0.00000000       0.00000000       0.00000000       0.00000000       0.00000000       0.00000000
    W          4.74750000       7.91250000       4.74750000       0.00000000       0.00000000       0.00000000       0.00000000       0.00000000       0.00000000
    W          3.16500000       6.33000000       6.33000000       0.00000000       0.00000000       0.00000000       0.00000000       0.00000000       0.00000000
    W          4.74750000       7.91250000       7.91250000       0.00000000       0.00000000       0.00000000       0.00000000       0.00000000       0.00000000
    W          3.16500000       6.33000000       9.49500000       0.00000000       0.00000000       0.00000000       0.00000000       0.00000000       0.00000000
    W          4.74750000       7.91250000      11.07750000       0.00000000       0.00000000       0.00000000       0.00000000       0.00000000       0.00000000
    W          3.16500000       9.49500000       0.00000000       0.00000000       0.00000000       0.00000000       0.00000000       0.00000000       0.00000000
    W          4.74750000      11.07750000       1.58250000       0.00000000       0.00000000       0.00000000       0.00000000       0.00000000       0.00000000
    W          3.16500000       9.49500000       3.16500000       0.00000000       0.00000000       0.00000000       0.00000000       0.00000000       0.00000000
    W          4.74750000      11.07750000       4.74750000       0.00000000       0.00000000       0.00000000       0.00000000       0.00000000       0.00000000
    W          3.16500000       9.49500000       6.33000000       0.00000000       0.00000000       0.00000000       0.00000000       0.00000000       0.00000000
    W          4.74750000      11.07750000       7.91250000       0.00000000       0.00000000       0.00000000       0.00000000       0.00000000       0.00000000
    W          3.16500000       9.49500000       9.49500000       0.00000000       0.00000000       0.00000000       0.00000000       0.00000000       0.00000000
    W          4.74750000      11.07750000      11.07750000       0.00000000       0.00000000       0.00000000       0.00000000       0.00000000       0.00000000
    W          6.33000000       0.00000000       0.00000000       0.00000000       0.00000000       0.00000000       0.00000000       0.00000000       0.00000000
    W          7.91250000       1.58250000       1.58250000       0.00000000       0.00000000       0.00000000       0.00000000       0.00000000       0.00000000
    W          6.33000000       0.00000000       3.16500000       0.00000000       0.00000000       0.00000000       0.00000000       0.00000000       0.00000000
    W          7.91250000       1.58250000       4.74750000       0.00000000       0.00000000       0.00000000       0.00000000       0.00000000       0.00000000
    W          6.33000000       0.00000000       6.33000000       0.00000000       0.00000000       0.00000000       0.00000000       0.00000000       0.00000000
    W          7.91250000       1.58250000       7.91250000       0.00000000       0.00000000       0.00000000       0.00000000       0.00000000       0.00000000
    W          6.33000000       0.00000000       9.49500000       0.00000000       0.00000000       0.00000000       0.00000000       0.00000000       0.00000000
    W          7.91250000       1.58250000      11.07750000       0.00000000       0.00000000       0.00000000       0.00000000       0.00000000       0.00000000
    W          6.33000000       3.16500000       0.00000000       0.00000000       0.00000000       0.00000000       0.00000000       0.00000000       0.00000000
    W          7.91250000       4.74750000       1.58250000       0.00000000       0.00000000       0.00000000       0.00000000       0.00000000       0.00000000
    W          6.33000000       3.16500000       3.16500000       0.00000000       0.00000000       0.00000000       0.00000000       0.00000000       0.00000000
    W          7.91250000       4.74750000       4.74750000       0.00000000       0.00000000       0.00000000       0.00000000       0.00000000       0.00000000
    W          6.33000000       3.16500000       6.33000000       0.00000000       0.00000000       0.00000000       0.00000000       0.00000000       0.00000000
    W          7.91250000       4.74750000       7.91250000       0.00000000       0.00000000       0.00000000       0.00000000       0.00000000       0.00000000
    W          6.33000000       3.16500000       9.49500000       0.00000000       0.00000000       0.00000000       0.00000000       0.00000000       0.00000000
    W          7.91250000       4.74750000      11.07750000       0.00000000       0.00000000       0.00000000       0.00000000       0.00000000       0.00000000
    W          6.33000000       6.33000000       0.00000000       0.00000000       0.00000000       0.00000000       0.00000000       0.00000000       0.00000000
    W          7.91250000       7.91250000       1.58250000       0.00000000       0.00000000       0.00000000       0.00000000       0.00000000       0.00000000
    W          6.33000000       6.33000000       3.16500000       0.00000000       0.00000000       0.00000000       0.00000000       0.00000000       0.00000000
    W          7.91250000       7.91250000       4.74750000       0.00000000       0.00000000       0.00000000       0.00000000       0.00000000       0.00000000
    W          6.33000000       6.33000000       6.33000000       0.00000000       0.00000000       0.00000000       0.00000000       0.00000000       0.00000000
    W          7.91250000       7.91250000       7.91250000       0.00000000       0.00000000       0.00000000       0.00000000       0.00000000       0.00000000
    W          6.33000000       6.33000000       9.49500000       0.00000000       0.00000000       0.00000000       0.00000000       0.00000000       0.00000000
    W          7.91250000       7.91250000      11.07750000       0.00000000       0.00000000       0.00000000       0.00000000       0.00000000       0.00000000
    W          6.33000000       9.49500000       0.00000000       0.00000000       0.00000000       0.00000000       0.00000000       0.00000000       0.00000000
    W          7.91250000      11.07750000       1.58250000       0.00000000       0.00000000       0.00000000       0.00000000       0.00000000       0.00000000
    W          6.33000000       9.49500000       3.16500000       0.00000000       0.00000000       0.00000000       0.00000000       0.00000000       0.00000000
    W          7.91250000      11.07750000       4.74750000       0.00000000       0.00000000       0.00000000       0.00000000       0.00000000       0.00000000
    W          6.33000000       9.49500000       6.33000000       0.00000000       0.00000000       0.00000000       0.00000000       0.00000000       0.00000000
    W          7.91250000      11.07750000       7.91250000       0.00000000       0.00000000       0.00000000       0.00000000       0.00000000       0.00000000
    W          6.33000000       9.49500000       9.49500000       0.00000000       0.00000000       0.00000000       0.00000000       0.00000000       0.00000000
    W          7.91250000      11.07750000      11.07750000       0.00000000       0.00000000       0.00000000       0.00000000       0.00000000       0.00000000
    W          9.49500000       0.00000000       0.00000000       0.00000000       0.00000000       0.00000000       0.00000000       0.00000000       0.00000000
    W         11.07750000       1.58250000       1.58250000       0.00000000       0.00000000       0.00000000       0.00000000       0.00000000       0.00000000
    W          9.49500000       0.00000000       3.16500000       0.00000000       0.00000000       0.00000000       0.00000000       0.00000000       0.00000000
    W         11.07750000       1.58250000       4.74750000       0.00000000       0.00000000       0.00000000       0.00000000       0.00000000       0.00000000
    W          9.49500000       0.00000000       6.33000000       0.00000000       0.00000000       0.00000000       0.00000000       0.00000000       0.00000000
    W         11.07750000       1.58250000       7.91250000       0.00000000       0.00000000       0.00000000       0.00000000       0.00000000       0.00000000
    W          9.49500000       0.00000000       9.49500000       0.00000000       0.00000000       0.00000000       0.00000000       0.00000000       0.00000000
    W         11.07750000       1.58250000      11.07750000       0.00000000       0.00000000       0.00000000       0.00000000       0.00000000       0.00000000
    W          9.49500000       3.16500000       0.00000000       0.00000000       0.00000000       0.00000000       0.00000000       0.00000000       0.00000000
    W         11.07750000       4.74750000       1.58250000       0.00000000       0.00000000       0.00000000       0.00000000       0.00000000       0.00000000
    W          9.49500000       3.16500000       3.16500000       0.00000000       0.00000000       0.00000000       0.00000000       0.00000000       0.00000000
    W         11.07750000       4.74750000       4.74750000       0.00000000       0.00000000       0.00000000       0.00000000       0.00000000       0.00000000
    W          9.49500000       3.16500000       6.33000000       0.00000000       0.00000000       0.00000000       0.00000000       0.00000000       0.00000000
    W         11.07750000       4.74750000       7.91250000       0.00000000       0.00000000       0.00000000       0.00000000       0.00000000       0.00000000
    W          9.49500000       3.16500000       9.49500000       0.00000000       0.00000000       0.00000000       0.00000000       0.00000000       0.00000000
    W         11.07750000       4.74750000      11.07750000       0.00000000       0.00000000       0.00000000       0.00000000       0.00000000       0.00000000
    W          9.49500000       6.33000000       0.00000000       0.00000000       0.00000000       0.00000000       0.00000000       0.00000000       0.00000000
    W         11.07750000       7.91250000       1.58250000       0.00000000       0.00000000       0.00000000       0.00000000       0.00000000       0.00000000
    W          9.49500000       6.33000000       3.16500000       0.00000000       0.00000000       0.00000000       0.00000000       0.00000000       0.00000000
    W         11.07750000       7.91250000       4.74750000       0.00000000       0.00000000       0.00000000       0.00000000       0.00000000       0.00000000
    W          9.49500000       6.33000000       6.33000000       0.00000000       0.00000000       0.00000000       0.00000000       0.00000000       0.00000000
    W         11.07750000       7.91250000       7.91250000       0.00000000       0.00000000       0.00000000       0.00000000       0.00000000       0.00000000
    W          9.49500000       6.33000000       9.49500000       0.00000000       0.00000000       0.00000000       0.00000000       0.00000000       0.00000000
    W         11.07750000       7.91250000      11.07750000       0.00000000       0.00000000       0.00000000       0.00000000       0.00000000       0.00000000
    W          9.49500000       9.49500000       0.00000000       0.00000000       0.00000000       0.00000000       0.00000000       0.00000000       0.00000000
    W         11.07750000      11.07750000       1.58250000       0.00000000       0.00000000       0.00000000       0.00000000       0.00000000       0.00000000
    W          9.49500000       9.49500000       3.16500000       0.00000000       0.00000000       0.00000000       0.00000000       0.00000000       0.00000000
    W         11.07750000      11.07750000       4.74750000       0.00000000       0.00000000       0.00000000       0.00000000       0.00000000       0.00000000
    W          9.49500000       9.49500000       6.33000000       0.00000000       0.00000000       0.00000000       0.00000000       0.00000000       0.00000000
    W         11.07750000      11.07750000       7.91250000       0.00000000       0.00000000       0.00000000       0.00000000       0.00000000       0.00000000
    W          9.49500000       9.49500000       9.49500000       0.00000000       0.00000000       0.00000000       0.00000000       0.00000000       0.00000000
    W         11.07750000      11.07750000      11.07750000       0.00000000       0.00000000       0.00000000       0.00000000       0.00000000       0.00000000
