128
   time=   0.000000 (fs)  Energy=  -4.589867 (eV)
BOX        12.66000000       0.00000000       0.00000000       0.00000000      12.66000000       0.00000000       0.00000000       0.00000000      12.66000000
    W         12.65997056      12.65999158       0.00002857      -0.02944190      -0.00841697       0.02856658       0.00000030       0.00000009      -0.00000041
    W          1.58248716       1.58248284       1.58250019      -0.01284177      -0.01715882       0.00018741      -0.00000016       0.00000029      -0.00000001
    W         12.65995741       0.00001256       3.16499832      -0.04259246       0.01255982      -0.00167609       0.00000039      -0.00000013      -0.00000008
    W          1.58248566       1.58249594       4.74752815      -0.01433539      -0.00406034       0.02815242       0.00000004       0.00000010      -0.00000025
    W         12.65999763      12.65998410       6.32995881      -0.00236578      -0.01589575      -0.04119315       0.00000000      -0.00000019       0.00000031
    W          1.58248670       1.58246771       7.91248126      -0.01329800      -0.03228532      -0.01873881      -0.00000008       0.00000019      -0.00000000
    W         12.65995911       0.00004129       9.49501275      -0.04089126       0.04129010       0.01275027       0.00000042      -0.00000025      -0.00000004
    W          1.58253315       1.58255729      11.07748227       0.03314709       0.05729413      -0.01773002      -0.00000027      -0.00000037       0.00000014
    W         12.65998880       3.16500040      12.65996501      -0.01120176       0.00040321      -0.03499132       0.00000017       0.00000002       0.00000021
    W          1.58253907       4.74749054       1.58253363       0.03906552      -0.00946289       0.03362670      -0.00000035       0.00000007      -0.00000004
    W         12.65994012       3.16499409       3.16502875      -0.05987888      -0.00591439       0.02875442       0.00000036      -0.00000010      -0.00000017
    W          1.58250812       4.74746176       4.74748154       0.00812071      -0.03823988      -0.01846474       0.00000005       0.00000026       0.00000014
    W          0.00000385       3.16500351       6.32998021       0.00385391       0.00351138      -0.01978725      -0.00000025       0.00000007       0.00000011
    W          1.58246898       4.74748978       7.91251313      -0.03102454      -0.01021634       0.01312852       0.00000016       0.00000015      -0.00000013
    W         12.65996656       3.16500019       9.49499260      -0.03344245       0.00019045      -0.00739785       0.00000016      -0.00000006      -0.00000010
    W          1.58251906       4.74751908      11.07747937       0.01905808       0.01908185      -0.02063409      -0.00000014      -0.00000014       0.00000003
    W          0.00001890       6.33001561      12.65997968       0.01889940       0.01560681      -0.02031666      -0.00000004      -0.00000002       0.00000019
    W          1.58253255       7.91252315       1.58251680       0.03255113       0.02315124       0.01679844      -0.00000042      -0.00000014       0.00000020
    W         12.65997913       6.32997144       3.16505254      -0.02086606      -0.02856187       0.05253849       0.00000029       0.00000018      -0.00000041
    W          1.58253098       7.91248367       4.74750280       0.03098358      -0.01633383       0.00279714      -0.00000026       0.00000026       0.00000016
    W         12.65999658       6.33001179       6.32998711      -0.00342370       0.01178546      -0.01289446       0.00000008      -0.00000008      -0.00000001
    W          1.58249823       7.91249182       7.91254402      -0.00177473      -0.00817779       0.04401579      -0.00000008       0.00000015      -0.00000027
    W          0.00002099       6.33001079       9.49496915       0.02099077       0.01078749      -0.03084963      -0.00000025      -0.00000006       0.00000024
    W          1.58252338       7.91247355      11.07743206       0.02337805      -0.02645424      -0.06793660      -0.00000018       0.00000025       0.00000032
    W          0.00003031       9.49496620      12.65997836       0.03031382      -0.03380350      -0.02164255      -0.00000000       0.00000018      -0.00000013
    W          1.58256698      11.07750181       1.58247641       0.06698457       0.00180672      -0.02359189      -0.00000058      -0.00000003       0.00000020
    W         12.65997469       9.49503115       3.16502102      -0.02531263       0.03114966       0.02102170       0.00000034      -0.00000018      -0.00000012
    W          1.58249188      11.07749791       4.74748463      -0.00811904      -0.00209311      -0.01537364       0.00000008       0.00000001       0.00000012
    W         12.65998197       9.49500910       6.33000835      -0.01802998       0.00909747       0.00834771       0.00000007      -0.00000015      -0.00000007
    W          1.58251554      11.07745610       7.91251740       0.01554115      -0.04389703       0.01739817      -0.00000018       0.00000040      -0.00000002
    W         12.65999183       9.49502778       9.49501098      -0.00816527       0.02778351       0.01097833       0.00000006      -0.00000020       0.00000007
    W          1.58253489      11.07753859      11.07748573       0.03488784       0.03859175      -0.01426890      -0.00000020      -0.00000012       0.00000010
    W          3.16499266       0.00001136       0.00001884      -0.00733565       0.01135872       0.01883595       0.00000025       0.00000020      -0.00000024
    W          4.74749317       1.58253440       1.58251173      -0.00682824       0.03440444       0.01172725       0.00000002      -0.00000027      -0.00000010
    W          3.16495295       0.00001984       3.16497616      -0.04704837       0.01984200      -0.02383628       0.00000039      -0.00000005       0.00000029
    W          4.74750120       1.58247675       4.74756286       0.00119616      -0.02324929       0.06286260       0.00000002       0.00000007      -0.00000045
    W          3.16500986       0.00001598       6.32998128       0.00986246       0.01597522      -0.01872134      -0.00000004      -0.00000028       0.00000031
    W          4.74758173       1.58248965       7.91249040       0.08172633      -0.01034704      -0.00959917      -0.00000050       0.00000013       0.00000007
    W          3.16497934       0.00001212       9.49498332      -0.02066353       0.01212397      -0.01668064       0.00000025       0.00000012      -0.00000008
    W          4.74755695       1.58250233      11.07746301       0.05694864       0.00233226      -0.03699212      -0.00000049       0.00000005       0.00000030
    W          3.16499998       3.16500827       0.00000275      -0.00002410       0.00827280       0.00274876       0.00000010      -0.00000006      -0.00000004
    W          4.74750559       4.74747381       1.58253636       0.00558910      -0.02618500       0.03636034      -0.00000029       0.00000033      -0.00000026
    W          3.16500905       3.16499964       3.16498423       0.00904966      -0.00036223      -0.01577274       0.00000004      -0.00000022       0.00000034
    W          4.74753293       4.74749310       4.74753296       0.03292500      -0.00689972       0.03295851      -0.00000020      -0.00000010      -0.00000023
    W          3.16498657       3.16501979       6.33000149      -0.01342532       0.01978864       0.00148575       0.00000004      -0.00000023       0.00000013
    W          4.74750693       4.74750202       7.91242492       0.00692570       0.00201690      -0.07507821      -0.00000011      -0.00000019       0.00000048
    W          3.16498003       3.16500463       9.49498070      -0.01997371       0.00462587      -0.01930033       0.00000031      -0.00000007      -0.00000021
    W          4.74746874       4.74751143      11.07748090      -0.03126344       0.01142932      -0.01910154      -0.00000008      -0.00000002       0.00000011
    W          3.16495161       6.33004341       0.00000923      -0.04838595       0.04340725       0.00923340       0.00000036      -0.00000023      -0.00000002
    W          4.74747755       7.91253726       1.58248901      -0.02244904       0.03726172      -0.01098842       0.00000013      -0.00000022      -0.00000001
    W          3.16499462       6.33004983       3.16505303      -0.00537642       0.04982831       0.05303459       0.00000023      -0.00000035      -0.00000024
    W          4.74746522       7.91251463       4.74752696      -0.03477525       0.01462951       0.02695852       0.00000025       0.00000001      -0.00000013
    W          3.16503431       6.33002663       6.33002869       0.03431086       0.02662539       0.02868954      -0.00000038      -0.00000025      -0.00000014
    W          4.74748276       7.91248407       7.91251853      -0.01723745      -0.01593369       0.01853053       0.00000026       0.00000017       0.00000007
    W          3.16497821       6.33002721       9.49501777      -0.02178814       0.02721283       0.01776878       0.00000030      -0.00000029      -0.00000029
    W          4.74751575       7.91252694      11.07750039       0.01575355       0.02694148       0.00038668       0.00000001      -0.00000013       0.00000005
    W          3.16499490       9.49499935       0.00003193      -0.00510045      -0.00065250       0.03192812       0.00000004       0.00000003      -0.00000049
    W          4.74749656      11.07751194       1.58249618      -0.00343547       0.01193714      -0.00381627      -0.00000003      -0.00000014       0.00000016
    W          3.16497395       9.49499258       3.16501496      -0.02604528      -0.00742133       0.01496307       0.00000022       0.00000012      -0.00000003
    W          4.74749441      11.07746359       4.74753260      -0.00559474      -0.03641279       0.03260022      -0.00000001       0.00000035      -0.00000036
    W          3.16500409       9.49500628       6.33005402       0.00409341       0.00627626       0.05402322      -0.00000011      -0.00000008      -0.00000017
    W          4.74752710      11.07748069       7.91252767       0.02709546      -0.01931200       0.02766804      -0.00000013       0.00000018       0.00000006
    W          3.16499703       9.49496729       9.49501888      -0.00297233      -0.03271388       0.01888179       0.00000012       0.00000021      -0.00000008
    W          4.74750849      11.07753136      11.07746255       0.00849036       0.03135734      -0.03744727      -0.00000014      -0.00000028       0.00000029
    W          6.33000092      12.65998065       0.00002169       0.00091842      -0.01935180       0.02168645      -0.00000000       0.00000015      -0.00000003
    W          7.91249796       1.58249712       1.58248831      -0.00203677      -0.00288097      -0.01168747       0.00000007       0.00000009      -0.00000006
    W          6.33002753       0.00000683       3.16498168       0.02753472       0.00682559      -0.01832493      -0.00000028      -0.00000002       0.00000009
    W          7.91252529       1.58247644       4.74749547       0.02528808      -0.02355580      -0.00452914      -0.00000012      -0.00000008      -0.00000004
    W          6.33002677      12.65999673       6.33003468       0.02677230      -0.00326792       0.03467731      -0.00000010      -0.00000013      -0.00000022
    W          7.91250569       1.58248400       7.91247494       0.00569274      -0.01599592      -0.02505513      -0.00000009       0.00000009       0.00000033
    W          6.32997316       0.00003197       9.49505674      -0.02683898       0.03197260       0.05674207       0.00000045      -0.00000018      -0.00000042
    W          7.91252961       1.58249986      11.07751254       0.02960902      -0.00014203       0.01254436      -0.00000023       0.00000020       0.00000009
    W          6.32996137       3.16501800       0.00000902      -0.03863498       0.01800349       0.00902328       0.00000019      -0.00000006      -0.00000016
    W          7.91244802       4.74747746       1.58252554      -0.05197513      -0.02253678       0.02553928       0.00000024       0.00000010      -0.00000019
    W          6.32999596       3.16498097       3.16497438      -0.00404290      -0.01903090      -0.02562318      -0.00000002      -0.00000015       0.00000037
    W          7.91249816       4.74750295       4.74744733      -0.00184314       0.00295133      -0.05267104      -0.00000008       0.00000009       0.00000033
    W          6.33002816       3.16494774       6.32998812       0.02816226      -0.05225881      -0.01188115       0.00000012       0.00000029      -0.00000007
    W          7.91250339       4.74749462       7.91248191       0.00339431      -0.00538478      -0.01808816       0.00000004      -0.00000000       0.00000004
    W          6.33001077       3.16501583       9.49501105       0.01077251       0.01582749       0.01104550       0.00000012       0.00000010      -0.00000010
    W          7.91253026       4.74750627      11.07753153       0.03025828       0.00627300       0.03152598      -0.00000002       0.00000000      -0.00000024
    W          6.32999659       6.32998000      12.65996216      -0.00341340      -0.01999601      -0.03783953      -0.00000015       0.00000005       0.00000030
    W          7.91250945       7.91246251       1.58250081       0.00944605      -0.03748578       0.00080691      -0.00000012       0.00000009      -0.00000002
    W          6.32997184       6.32997695       3.16495359      -0.02815975      -0.02304704      -0.04640698      -0.00000002       0.00000038       0.00000037
    W          7.91251960       7.91254982       4.74747460       0.01959833       0.04981763      -0.02539592      -0.00000024      -0.00000054       0.00000022
    W          6.32995271       6.32996679       6.33000636      -0.04728551      -0.03321213       0.00636209       0.00000046       0.00000040      -0.00000018
    W          7.91245516       7.91251635       7.91251877      -0.04483576       0.01635122       0.01876875       0.00000012      -0.00000018      -0.00000019
    W          6.32998530       6.32995189       9.49497988      -0.01470181      -0.04811133      -0.02011875       0.00000004       0.00000011       0.00000013
    W          7.91248717       7.91248336      11.07749531      -0.01282934      -0.01664361      -0.00468549       0.00000010      -0.00000019      -0.00000001
    W          6.33004456       9.49500531       0.00001340       0.04456304       0.00530637       0.01339816      -0.00000018       0.00000008      -0.00000006
    W          7.91254031      11.07748707       1.58251068       0.04030638      -0.01292559       0.01067534      -0.00000013       0.00000013      -0.00000008
    W          6.33000801       9.49497197       3.16498967       0.00800772      -0.02802700      -0.01032830      -0.00000007       0.00000019       0.00000000
    W          7.91248585      11.07753455       4.74749679      -0.01415371       0.03454716      -0.00320579       0.00000013      -0.00000022       0.00000009
    W          6.32996460       9.49501803       6.32998061      -0.03539877       0.01802691      -0.01939239       0.00000026      -0.00000013       0.00000019
    W          7.91252231      11.07752037       7.91249497       0.02230756       0.02037338      -0.00502898      -0.00000017      -0.00000024       0.00000013
    W          6.33004465       9.49499417       9.49501626       0.04465350      -0.00582867       0.01625602      -0.00000019       0.00000011      -0.00000005
    W          7.91248996      11.07752888      11.07750516      -0.01003677       0.02888215       0.00515628       0.00000015      -0.00000013       0.00000002
    W          9.49499402       0.00004372      12.65999569      -0.00598072       0.04372146      -0.00431363       0.00000014      -0.00000031       0.00000006
    W         11.07750372       1.58249583       1.58249136       0.00372376      -0.00417117      -0.00864238      -0.00000013       0.00000022       0.00000002
    W          9.49504007      12.65997988       3.16498552       0.04006800      -0.02011657      -0.01448128      -0.00000014       0.00000009      -0.00000006
    W         11.07750858       1.58246298       4.74749839       0.00857888      -0.03702258      -0.00161294      -0.00000023       0.00000020       0.00000010
    W          9.49498895       0.00000932       6.33001671      -0.01104630       0.00932442       0.01671158       0.00000021      -0.00000019      -0.00000012
    W         11.07750490       1.58246852       7.91248984       0.00490433      -0.03147871      -0.01015764      -0.00000005       0.00000012      -0.00000006
    W          9.49495334      12.65999195       9.49499817      -0.04665999      -0.00805465      -0.00183303       0.00000021       0.00000014      -0.00000005
    W         11.07750165       1.58248328      11.07747032       0.00165314      -0.01671765      -0.02968076      -0.00000018       0.00000012       0.00000021
    W          9.49501796       3.16504874       0.00000186       0.01795747       0.04873611       0.00186268      -0.00000004      -0.00000032       0.00000004
    W         11.07749261       4.74747220       1.58250978      -0.00739346      -0.02779593       0.00978289       0.00000015       0.00000012       0.00000002
    W          9.49495004       3.16497962       3.16501867      -0.04996127      -0.02038135       0.01867146       0.00000033      -0.00000003      -0.00000015
    W         11.07749189       4.74752346       4.74744424      -0.00811491       0.02346406      -0.05575734      -0.00000021      -0.00000018       0.00000044
    W          9.49498807       3.16498669       6.33000073      -0.01193424      -0.01331420       0.00072656       0.00000020       0.00000013      -0.00000013
    W         11.07748679       4.74755113       7.91250196      -0.01321025       0.05112855       0.00195612       0.00000014      -0.00000033      -0.00000010
    W          9.49501681       3.16498959       9.49499134       0.01681384      -0.01041229      -0.00866477      -0.00000008       0.00000005      -0.00000008
    W         11.07752767       4.74747290      11.07748891       0.02767204      -0.02709558      -0.01108758      -0.00000016       0.00000037      -0.00000003
    W          9.49500987       6.32999637       0.00004453       0.00986705      -0.00363208       0.04453429       0.00000007      -0.00000007      -0.00000015
    W         11.07750561       7.91251853       1.58253325       0.00561435       0.01853047       0.03324655       0.00000008      -0.00000004      -0.00000009
    W          9.49500338       6.32999422       3.16497096       0.00338218      -0.00577721      -0.02903887      -0.00000008       0.00000002       0.00000002
    W         11.07749417       7.91247605       4.74748506      -0.00583136      -0.02394888      -0.01494020      -0.00000006       0.00000018      -0.00000000
    W          9.49502163       6.33001270       6.33001768       0.02162678       0.01270420       0.01767804      -0.00000031       0.00000002      -0.00000020
    W         11.07748860       7.91249273       7.91250825      -0.01140489      -0.00727381       0.00825092       0.00000025       0.00000008       0.00000002
    W          9.49502966       6.33001483       9.49497825       0.02965522       0.01482501      -0.02174997      -0.00000029      -0.00000010       0.00000015
    W         11.07747179       7.91251214      11.07748330      -0.02821292       0.01214464      -0.01670161       0.00000024      -0.00000019       0.00000010
    W          9.49498164       9.49497355      12.65999536      -0.01835601      -0.02645104      -0.00464366       0.00000009       0.00000015       0.00000001
    W         11.07755358      11.07750740       1.58247600       0.05357725       0.00739714      -0.02400170      -0.00000045      -0.00000026      -0.00000002
    W          9.49496186       9.49500581       3.16500720      -0.03813517       0.00581263       0.00720351       0.00000033       0.00000010      -0.00000011
    W         11.07750690      11.07750087       4.74747239       0.00689806       0.00087430      -0.02760975      -0.00000023      -0.00000003       0.00000026
    W          9.49502350       9.49496484       6.33001936       0.02350373      -0.03515970       0.01936205      -0.00000008       0.00000028      -0.00000012
    W         11.07750282      11.07749297       7.91254445       0.00281754      -0.00703280       0.04444795      -0.00000011       0.00000013      -0.00000019
    W          9.49501396       9.49496315       9.49502504       0.01395660      -0.03685103       0.02503834      -0.00000031       0.00000020      -0.00000017
    W         11.07746786      11.07750727      11.07745561      -0.03214107       0.00727194      -0.04438702       0.00000007      -0.00000001       0.00000038
128
   time=   0.100000 (fs)  Energy=  -4.589867 (eV)
BOX        12.66000000       0.00000000       0.00000000       0.00000000      12.66000000       0.00000000       0.00000000       0.00000000      12.66000000
    W         12.65702642      12.65914990       0.00288515      -0.02944036      -0.00841649       0.02856448       0.00003057       0.00000955      -0.00004159
    W          1.58120295       1.58076701       1.58251893      -0.01284258      -0.01715735       0.00018737      -0.00001600       0.00002910      -0.00000081
    W         12.65569823       0.00126852       3.16483070      -0.04259045       0.01255915      -0.00167648       0.00003977      -0.00001312      -0.00000773
    W          1.58105213       1.58208992       4.75034335      -0.01433517      -0.00405981       0.02815113       0.00000434       0.00001053      -0.00002563
    W         12.65976106      12.65839450       6.32583954      -0.00236576      -0.01589670      -0.04119157       0.00000037      -0.00001880       0.00003138
    W          1.58115689       1.57923922       7.91060738      -0.01329843      -0.03228433      -0.01873882      -0.00000853       0.00001952      -0.00000017
    W         12.65587006       0.00417026       9.49628777      -0.04088909       0.04128879       0.01275004       0.00004290      -0.00002582      -0.00000449
    W          1.58584781       1.58828664      11.07570929       0.03314570       0.05729224      -0.01772931      -0.00002740      -0.00003731       0.00001389
    W         12.65886865       3.16504073      12.65646591      -0.01120090       0.00040331      -0.03499026       0.00001698       0.00000178       0.00002090
    W          1.58644556       4.74654426       1.58589629       0.03906375      -0.00946254       0.03362650      -0.00003492       0.00000718      -0.00000406
    W         12.65395230       3.16440263       3.16790417      -0.05987703      -0.00591492       0.02875357       0.00003658      -0.00001042      -0.00001684
    W          1.58332020       4.74363782       4.74563508       0.00812096      -0.03823858      -0.01846405       0.00000482       0.00002573       0.00001346
    W          0.00038920       3.16535466       6.32800151       0.00385261       0.00351172      -0.01978671      -0.00002558       0.00000664       0.00001073
    W          1.57936655       4.74646817       7.91382596      -0.03102375      -0.01021560       0.01312786       0.00001573       0.00001456      -0.00001314
    W         12.65662234       3.16501923       9.49425280      -0.03344166       0.00019016      -0.00739835       0.00001584      -0.00000570      -0.00000995
    W          1.58442484       4.74942724      11.07541596       0.01905736       0.01908115      -0.02063393      -0.00001430      -0.00001389       0.00000328
    W          0.00190883       6.33157628      12.65794805       0.01889918       0.01560670      -0.02031570      -0.00000448      -0.00000215       0.00001890
    W          1.58578759       7.91483825       1.58419668       0.03254901       0.02315052       0.01679947      -0.00004194      -0.00001422       0.00002017
    W         12.65789258       6.32711528       3.17030632      -0.02086459      -0.02856093       0.05253639       0.00002924       0.00001878      -0.00004163
    W          1.58562930       7.91085033       4.74778254       0.03098223      -0.01633251       0.00279799      -0.00002699       0.00002622       0.00001698
    W         12.65965422       6.33119032       6.32869766      -0.00342327       0.01178507      -0.01289451       0.00000846      -0.00000780      -0.00000094
    W          1.58232074       7.91167407       7.91694555      -0.00177513      -0.00817703       0.04401438      -0.00000775       0.00001515      -0.00002804
    W          0.00212002       6.33108953       9.49188423       0.02098947       0.01078716      -0.03084839      -0.00002570      -0.00000666       0.00002452
    W          1.58486115       7.90982816      11.07063846       0.02337708      -0.02645296      -0.06793496      -0.00001953       0.00002560       0.00003266
    W          0.00306170       9.49158588      12.65781408       0.03031382      -0.03380261      -0.02164319      -0.00000008       0.00001741      -0.00001251
    W          1.58926534      11.07768247       1.58011725       0.06698162       0.00180658      -0.02359089      -0.00005844      -0.00000287       0.00001972
    W         12.65744348       9.49814608       3.16712317      -0.02531092       0.03114873       0.02102108       0.00003371      -0.00001838      -0.00001223
    W          1.58167999      11.07728860       4.74594728      -0.00811863      -0.00209305      -0.01537305       0.00000819       0.00000116       0.00001171
    W         12.65817898       9.49591882       6.33084311      -0.01802962       0.00909669       0.00834736       0.00000713      -0.00001521      -0.00000685
    W          1.58406962      11.07306647       7.91425721       0.01554022      -0.04389498       0.01739806      -0.00001839       0.00004043      -0.00000201
    W         12.65917532       9.49780610       9.49610882      -0.00816499       0.02778250       0.01097867       0.00000577      -0.00001997       0.00000689
    W          1.58602364      11.08139775      11.07605886       0.03488680       0.03859114      -0.01426841      -0.00002064      -0.00001208       0.00000981
    W          3.16425914       0.00114726       0.00190239      -0.00733438       0.01135973       0.01883471       0.00002509       0.00002001      -0.00002447
    W          4.74681035       1.58597480       1.58368444      -0.00682814       0.03440303       0.01172675       0.00000187      -0.00002794      -0.00000981
    W          3.16024818       0.00200403       3.16259259      -0.04704638       0.01984177      -0.02383479       0.00003921      -0.00000432       0.00002940
    W          4.74762082       1.58015183       4.75384905       0.00119626      -0.02324890       0.06286031       0.00000217       0.00000777      -0.00004531
    W          3.16599610       0.00161345       6.32810920       0.00986224       0.01597378      -0.01871976      -0.00000459      -0.00002859       0.00003115
    W          4.75575427       1.58145497       7.91153050       0.08172379      -0.01034638      -0.00959880      -0.00005032       0.00001312       0.00000730
    W          3.16291303       0.00122454       9.49331524      -0.02066227       0.01212459      -0.01668107       0.00002506       0.00001215      -0.00000837
    W          4.75325173       1.58273557      11.07376385       0.05694611       0.00233254      -0.03699057      -0.00005023       0.00000591       0.00003084
    W          3.16499758       3.16583554       0.00027762      -0.00002358       0.00827249       0.00274855       0.00001026      -0.00000603      -0.00000400
    W          4.74806445       4.74485537       1.58617235       0.00558765      -0.02618335       0.03635901      -0.00002859       0.00003248      -0.00002625
    W          3.16591402       3.16496338       3.16340701       0.00904987      -0.00036335      -0.01577102       0.00000404      -0.00002222       0.00003397
    W          4.75082539       4.74680311       4.75082877       0.03292396      -0.00690023       0.03295735      -0.00002068      -0.00001021      -0.00002319
    W          3.16364405       3.16699861       6.33015008      -0.01342514       0.01978745       0.00148638       0.00000366      -0.00002350       0.00001253
    W          4.74819948       4.74770367       7.90491718       0.00692514       0.00201590      -0.07507573      -0.00001099      -0.00002021       0.00004907
    W          3.16298271       3.16546720       9.49305063      -0.01997215       0.00462554      -0.01930141       0.00003081      -0.00000650      -0.00002150
    W          4.74434238       4.74865436      11.07557076      -0.03126385       0.01142919      -0.01910099      -0.00000820      -0.00000251       0.00001088
    W          3.16011308       6.33438409       0.00093257      -0.04838412       0.04340607       0.00923327       0.00003607      -0.00002325      -0.00000260
    W          4.74523267       7.91626339       1.58139017      -0.02244838       0.03726058      -0.01098847       0.00001302      -0.00002253      -0.00000097
    W          3.16445702       6.33503260       3.17035645      -0.00537526       0.04982651       0.05303335       0.00002285      -0.00003573      -0.00002475
    W          4.74398774       7.91397758       4.75022279      -0.03477397       0.01462957       0.02695786       0.00002526       0.00000120      -0.00001304
    W          3.16846533       6.33268912       6.33289762       0.03430890       0.02662410       0.02868881      -0.00003886      -0.00002537      -0.00001461
    W          4.74575906       7.91089073       7.91437160      -0.01723610      -0.01593281       0.01853089       0.00002676       0.00001732       0.00000714