108
   time=   0.000000 (fs)  Energy=  0.000000 (eV)
BOX        10.84500000       0.00000000       0.00000000       0.00000000      10.84500000       0.00000000       0.00000000       0.00000000      10.84500000
   Cu          0.00000000       0.00000000       0.00000000       0.00000000       0.00000000       0.00000000       0.00000000       0.00000000       0.00000000
   Cu          0.00000000       1.80750000       1.80750000       0.00000000       0.00000000       0.00000000       0.00000000       0.00000000       0.00000000
   Cu          1.80750000       1.80750000       0.00000000       0.00000000       0.00000000       0.00000000       0.00000000       0.00000000       0.00000000
   Cu          1.80750000       0.00000000       1.80750000       0.00000000       0.00000000       0.00000000       0.00000000       0.00000000       0.00000000
   Cu          0.00000000       0.00000000       3.61500000       0.00000000       0.00000000       0.00000000       0.00000000       0.00000000       0.00000000
   Cu          0.00000000       1.80750000       5.42250000       0.00000000       0.00000000       0.00000000       0.00000000       0.00000000       0.00000000
   Cu          1.80750000       1.80750000       3.61500000       0.00000000       0.00000000       0.00000000       0.00000000       0.00000000       0.00000000
   Cu          1.80750000       0.00000000       5.42250000       0.00000000       0.00000000       0.00000000       0.00000000       0.00000000       0.00000000
   Cu          0.00000000       0.00000000       7.23000000       0.00000000       0.00000000       0.00000000       0.00000000       0.00000000       0.00000000
   Cu          0.00000000       1.80750000       9.03750000       0.00000000       0.00000000       0.00000000       0.00000000       0.00000000       0.00000000
   Cu          1.80750000       1.80750000       7.23000000       0.00000000       0.00000000       0.00000000       0.00000000       0.00000000       0.00000000
   Cu          1.80750000       0.00000000       9.03750000       0.00000000       0.00000000       0.00000000       0.00000000       0.00000000       0.00000000
   Cu          0.00000000       3.61500000       0.00000000       0.00000000       0.00000000       0.00000000       0.00000000       0.00000000       0.00000000
   Cu          0.00000000       5.42250000       1.80750000       0.00000000       0.00000000       0.00000000       0.00000000       0.00000000       0.00000000
   Cu          1.80750000       5.42250000       0.00000000       0.00000000       0.00000000       0.00000000       0.00000000       0.00000000       0.00000000
   Cu          1.80750000       3.61500000       1.80750000       0.00000000       0.00000000       0.00000000       0.00000000       0.00000000       0.00000000
   Cu          0.00000000       3.61500000       3.61500000       0.00000000       0.00000000       0.00000000       0.00000000       0.00000000       0.00000000
   Cu          0.00000000       5.42250000       5.42250000       0.00000000       0.00000000       0.00000000       0.00000000       0.00000000       0.00000000
   Cu          1.80750000       5.42250000       3.61500000       0.00000000       0.00000000       0.00000000       0.00000000       0.00000000       0.00000000
   Cu          1.80750000       3.61500000       5.42250000       0.00000000       0.00000000       0.00000000       0.00000000       0.00000000       0.00000000
   Cu          0.00000000       3.61500000       7.23000000       0.00000000       0.00000000       0.00000000       0.00000000       0.00000000       0.00000000
   Cu          0.00000000       5.42250000       9.03750000       0.00000000       0.00000000       0.00000000       0.00000000       0.00000000       0.00000000
   Cu          1.80750000       5.42250000       7.23000000       0.00000000       0.00000000       0.00000000       0.00000000       0.00000000       0.00000000
   Cu          1.80750000       3.61500000       9.03750000       0.00000000       0.00000000       0.00000000       0.00000000       0.00000000       0.00000000
   Cu          0.00000000       7.23000000       0.00000000       0.00000000       0.00000000       0.00000000       0.00000000       0.00000000       0.00000000
   Cu          0.00000000       9.03750000       1.80750000       0.00000000       0.00000000       0.00000000       0.00000000       0.00000000       0.00000000
   Cu          1.80750000       9.03750000       0.00000000       0.00000000       0.00000000       0.00000000       0.00000000       0.00000000       0.00000000
   Cu          1.80750000       7.23000000       1.80750000       0.00000000       0.00000000       0.00000000       0.00000000       0.00000000       0.00000000
   Cu          0.00000000       7.23000000       3.61500000       0.00000000       0.00000000       0.00000000       0.00000000       0.00000000       0.00000000
   Cu          0.00000000       9.03750000       5.42250000       0.00000000       0.00000000       0.00000000       0.00000000       0.00000000       0.00000000
   Cu          1.80750000       9.03750000       3.61500000       0.00000000       0.00000000       0.00000000       0.00000000       0.00000000       0.00000000
   Cu          1.80750000       7.23000000       5.42250000       0.00000000       0.00000000       0.00000000       0.00000000       0.00000000       0.00000000
   Cu          0.00000000       7.23000000       7.23000000       0.00000000       0.00000000       0.00000000       0.00000000       0.00000000       0.00000000
   Cu          0.00000000       9.03750000       9.03750000       0.00000000       0.00000000       0.00000000       0.00000000       0.00000000       0.00000000
   Cu          1.80750000       9.03750000       7.23000000       0.00000000       0.00000000       0.00000000       0.00000000       0.00000000       0.00000000
   Cu          1.80750000       7.23000000       9.03750000       0.00000000       0.00000000       0.00000000       0.00000000       0.00000000       0.00000000
   Cu          3.61500000       0.00000000       0.00000000       0.00000000       0.00000000       0.00000000       0.00000000       0.00000000       0.00000000
   Cu          3.61500000       1.80750000       1.80750000       0.00000000       0.00000000       0.00000000       0.00000000       0.00000000       0.00000000
   Cu          5.42250000       1.80750000       0.00000000       0.00000000       0.00000000       0.00000000       0.00000000       0.00000000       0.00000000
   Cu          5.42250000       0.00000000       1.80750000       0.00000000       0.00000000       0.00000000       0.00000000       0.00000000       0.00000000
   Cu          3.61500000       0.00000000       3.61500000       0.00000000       0.00000000       0.00000000       0.00000000       0.00000000       0.00000000
   Cu          3.61500000       1.80750000       5.42250000       0.00000000       0.00000000       0.00000000       0.00000000       0.00000000       0.00000000
   Cu          5.42250000       1.80750000       3.61500000       0.00000000       0.00000000       0.00000000       0.00000000       0.00000000       0.00000000
   Cu          5.42250000       0.00000000       5.42250000       0.00000000       0.00000000       0.00000000       0.00000000       0.00000000       0.00000000
   Cu          3.61500000       0.00000000       7.23000000       0.00000000       0.00000000       0.00000000       0.00000000       0.00000000       0.00000000
   Cu          3.61500000       1.80750000       9.03750000       0.00000000       0.00000000       0.00000000       0.00000000       0.00000000       0.00000000
   Cu          5.42250000       1.80750000       7.23000000       0.00000000       0.00000000       0.00000000       0.00000000       0.00000000       0.00000000
   Cu          5.42250000       0.00000000       9.03750000       0.00000000       0.00000000       0.00000000       0.00000000       0.00000000       0.00000000
   Cu          3.61500000       3.61500000       0.00000000       0.00000000       0.00000000       0.00000000       0.00000000       0.00000000       0.00000000
   Cu          3.61500000       5.42250000       1.80750000       0.00000000       0.00000000       0.00000000       0.00000000       0.00000000       0.00000000
   Cu          5.42250000       5.42250000       0.00000000       0.00000000       0.00000000       0.00000000       0.00000000       0.00000000       0.00000000
   Cu          5.42250000       3.61500000       1.80750000       0.00000000       0.00000000       0.00000000       0.00000000       0.00000000       0.00000000
   Cu          3.61500000       3.61500000       3.61500000       0.00000000       0.00000000       0.00000000       0.00000000       0.00000000       0.00000000
   Cu          3.61500000       5.42250000       5.42250000       0.00000000       0.00000000       0.00000000       0.00000000       0.00000000       0.00000000
   Cu          5.42250000       5.42250000       3.61500000       0.00000000       0.00000000       0.00000000       0.00000000       0.00000000       0.00000000
   Cu          5.42250000       3.61500000       5.42250000       0.00000000       0.00000000       0.00000000       0.00000000       0.00000000       0.00000000
   Cu          3.61500000       3.61500000       7.23000000       0.00000000       0.00000000       0.00000000       0.00000000       0.00000000       0.00000000
   Cu          3.61500000       5.42250000       9.03750000       0.00000000       0.00000000       0.00000000       0.00000000       0.00000000       0.00000000
   Cu          5.42250000       5.42250000       7.23000000       0.00000000       0.00000000       0.00000000       0.00000000       0.00000000       0.00000000
   Cu          5.42250000       3.61500000       9.03750000       0.00000000       0.00000000       0.00000000       0.00000000       0.00000000       0.00000000
   Cu          3.61500000       7.23000000       0.00000000       0.00000000       0.00000000       0.00000000       0.00000000       0.00000000       0.00000000
   Cu          3.61500000       9.03750000       1.80750000       0.00000000       0.00000000       0.00000000       0.00000000       0.00000000       0.00000000
   Cu          5.42250000       9.03750000       0.00000000       0.00000000       0.00000000       0.00000000       0.00000000       0.00000000       0.00000000
   Cu          5.42250000       7.23000000       1.80750000       0.00000000       0.00000000       0.00000000       0.00000000       0.00000000       0.00000000
   Cu          3.61500000       7.23000000       3.61500000       0.00000000       0.00000000       0.00000000       0.00000000       0.00000000       0.00000000
   Cu          3.61500000       9.03750000       5.42250000       0.00000000       0.00000000       0.00000000       0.00000000       0.00000000       0.00000000
   Cu          5.42250000       9.03750000       3.61500000       0.00000000       0.00000000       0.00000000       0.00000000       0.00000000       0.00000000
   Cu          5.42250000       7.23000000       5.42250000       0.00000000       0.00000000       0.00000000       0.00000000       0.00000000       0.00000000
   Cu          3.61500000       7.23000000       7.23000000       0.00000000       0.00000000       0.00000000       0.00000000       0.00000000       0.00000000
   Cu          3.61500000       9.03750000       9.03750000       0.00000000       0.00000000       0.00000000       0.00000000       0.00000000       0.00000000
   Cu          5.42250000       9.03750000       7.23000000       0.00000000       0.00000000       0.00000000       0.00000000       0.00000000       0.00000000
   Cu          5.42250000       7.23000000       9.03750000       0.00000000       0.00000000       0.00000000       0.00000000       0.00000000       0.00000000
   Cu          7.23000000       0.00000000       0.00000000       0.00000000       0.00000000       0.00000000       0.00000000       0.00000000       0.00000000
   Cu          7.23000000       1.80750000       1.80750000       0.00000000       0.00000000       0.00000000       0.00000000       0.00000000       0.00000000
   Cu          9.03750000       1.80750000       0.00000000       0.00000000       0.00000000       0.00000000       0.00000000       0.00000000       0.00000000
   Cu          9.03750000       0.00000000       1.80750000       0.00000000       0.00000000       0.00000000       0.00000000       0.00000000       0.00000000
   Cu          7.23000000       0.00000000       3.61500000       0.00000000       0.00000000       0.00000000       0.00000000       0.00000000       0.00000000
   Cu          7.23000000       1.80750000       5.42250000       0.00000000       0.00000000       0.00000000       0.00000000       0.00000000       0.00000000
   Cu          9.03750000       1.80750000       3.61500000       0.00000000       0.00000000       0.00000000       0.00000000       0.00000000       0.00000000
   Cu          9.03750000       0.00000000       5.42250000       0.00000000       0.00000000       0.00000000       0.00000000       0.00000000       0.00000000
   Cu          7.23000000       0.00000000       7.23000000       0.00000000       0.00000000       0.00000000       0.00000000       0.00000000       0.00000000
   Cu          7.23000000       1.80750000       9.03750000       0.00000000       0.00000000       0.00000000       0.00000000       0.00000000       0.00000000
   Cu          9.03750000       1.80750000       7.23000000       0.00000000       0.00000000       0.00000000       0.00000000       0.00000000       0.00000000
   Cu          9.03750000       0.00000000       9.03750000       0.00000000       0.00000000       0.00000000       0.00000000       0.00000000       0.00000000
   Cu          7.23000000       3.61500000       0.00000000       0.00000000       0.00000000       0.00000000       0.00000000       0.00000000       0.00000000
   Cu          7.23000000       5.42250000       1.80750000       0.00000000       0.00000000       0.00000000       0.00000000       0.00000000       0.00000000
   Cu          9.03750000       5.42250000       0.00000000       0.00000000       0.00000000       0.00000000       0.00000000       0.00000000       0.00000000
   Cu          9.03750000       3.61500000       1.80750000       0.00000000       0.00000000       0.00000000       0.00000000       0.00000000       0.00000000
   Cu          7.23000000       3.61500000       3.61500000       0.00000000       0.00000000       0.00000000       0.00000000       0.00000000       0.00000000
   Cu          7.23000000       5.42250000       5.42250000       0.00000000       0.00000000       0.00000000       0.00000000       0.00000000       0.00000000
   Cu          9.03750000       5.42250000       3.61500000       0.00000000       0.00000000       0.00000000       0.00000000       0.00000000       0.00000000
   Cu          9.03750000       3.61500000       5.42250000       0.00000000       0.00000000       0.00000000       0.00000000       0.00000000       0.00000000
   Cu          7.23000000       3.61500000       7.23000000       0.00000000       0.00000000       0.00000000       0.00000000       0.00000000       0.00000000
   Cu          7.23000000       5.42250000       9.03750000       0.00000000       0.00000000       0.00000000       0.00000000       0.00000000       0.00000000
   Cu          9.03750000       5.42250000       7.23000000       0.00000000       0.00000000       0.00000000       0.00000000       0.00000000       0.00000000
   Cu          9.03750000       3.61500000       9.03750000       0.00000000       0.00000000       0.00000000       0.00000000       0.00000000       0.00000000
   Cu          7.23000000       7.23000000       0.00000000       0.00000000       0.00000000       0.00000000       0.00000000       0.00000000       0.00000000
   Cu          7.23000000       9.03750000       1.80750000       0.00000000       0.00000000       0.00000000       0.00000000       0.00000000       0.00000000
   Cu          9.03750000       9.03750000       0.00000000       0.00000000       0.00000000       0.00000000       0.00000000       0.00000000       0.00000000
   Cu          9.03750000       7.23000000       1.80750000       0.00000000       0.00000000       0.00000000       0.00000000       0.00000000       0.00000000
   Cu          7.23000000       7.23000000       3.61500000       0.00000000       0.00000000       0.00000000       0.00000000       0.00000000       0.00000000
   Cu          7.23000000       9.03750000       5.42250000       0.00000000       0.00000000       0.00000000       0.00000000       0.00000000       0.00000000
   Cu          9.03750000       9.03750000       3.61500000       0.00000000       0.00000000       0.00000000       0.00000000       0.00000000       0.00000000
   Cu          9.03750000       7.23000000       5.42250000       0.00000000       0.00000000       0.00000000       0.00000000       0.00000000       0.00000000
   Cu          7.23000000       7.23000000       7.23000000       0.00000000       0.00000000       0.00000000       0.00000000       0.00000000       0.00000000
   Cu          7.23000000       9.03750000       9.03750000       0.00000000       0.00000000       0.00000000       0.00000000       0.00000000       0.00000000
   Cu          9.03750000       9.03750000       7.23000000       0.00000000       0.00000000       0.00000000       0.00000000       0.00000000       0.00000000
   Cu          9.03750000       7.23000000       9.03750000       0.00000000       0.00000000       0.00000000       0.00000000       0.00000000       0.00000000
