72
   time=   0.000000 (fs)  Energy=  0.000000 (eV)
BOX         0.00000000       0.00000000       0.00000000       0.00000000       0.00000000       0.00000000       0.00000000       0.00000000       0.00000000
   Si          2.32075187       0.51752076       8.99089061       0.00000000       0.00000000       0.00000000       0.00000000       0.00000000       0.00000000
   Si          5.78544376       8.99089061       2.94717113       0.00000000       0.00000000       0.00000000       0.00000000       0.00000000       0.00000000
   Si          5.78544376       6.81287839       8.21509413       0.00000000       0.00000000       0.00000000       0.00000000       0.00000000       0.00000000
   Si          2.32075187       4.75040224       3.72296761       0.00000000       0.00000000       0.00000000       0.00000000       0.00000000       0.00000000
   Si         10.01832524       3.72296761       2.94717113       0.00000000       0.00000000       0.00000000       0.00000000       0.00000000       0.00000000
   Si          8.99089061       2.32075187       0.51752076       0.00000000       0.00000000       0.00000000       0.00000000       0.00000000       0.00000000
   Si          4.75040224       1.54495539       7.58867487       0.00000000       0.00000000       0.00000000       0.00000000       0.00000000       0.00000000
   Si          4.75040224       3.72296761       2.32075187       0.00000000       0.00000000       0.00000000       0.00000000       0.00000000       0.00000000
   Si          3.72296761       2.32075187       4.75040224       0.00000000       0.00000000       0.00000000       0.00000000       0.00000000       0.00000000
   Si          3.72296761       2.94717113      10.01832524       0.00000000       0.00000000       0.00000000       0.00000000       0.00000000       0.00000000
   Si         10.01832524       1.54495539       8.21509413       0.00000000       0.00000000       0.00000000       0.00000000       0.00000000       0.00000000
   Si          2.94717113       5.78544376       8.99089061       0.00000000       0.00000000       0.00000000       0.00000000       0.00000000       0.00000000
   Si          7.58867487       0.51752076       6.81287839       0.00000000       0.00000000       0.00000000       0.00000000       0.00000000       0.00000000
   Si          8.21509413      10.01832524       1.54495539       0.00000000       0.00000000       0.00000000       0.00000000       0.00000000       0.00000000
   Si          7.58867487       4.75040224       1.54495539       0.00000000       0.00000000       0.00000000       0.00000000       0.00000000       0.00000000
   Si          8.21509413       5.78544376       6.81287839       0.00000000       0.00000000       0.00000000       0.00000000       0.00000000       0.00000000
   Si          6.81287839       8.21509413       5.78544376       0.00000000       0.00000000       0.00000000       0.00000000       0.00000000       0.00000000
   Si          8.99089061       2.94717113       5.78544376       0.00000000       0.00000000       0.00000000       0.00000000       0.00000000       0.00000000
   Si          0.51752076       8.99089061       2.32075187       0.00000000       0.00000000       0.00000000       0.00000000       0.00000000       0.00000000
   Si          1.54495539       8.21509413      10.01832524       0.00000000       0.00000000       0.00000000       0.00000000       0.00000000       0.00000000
   Si          1.54495539       7.58867487       4.75040224       0.00000000       0.00000000       0.00000000       0.00000000       0.00000000       0.00000000
   Si          6.81287839       7.58867487       0.51752076       0.00000000       0.00000000       0.00000000       0.00000000       0.00000000       0.00000000
   Si          2.94717113      10.01832524       3.72296761       0.00000000       0.00000000       0.00000000       0.00000000       0.00000000       0.00000000
   Si          0.51752076       6.81287839       7.58867487       0.00000000       0.00000000       0.00000000       0.00000000       0.00000000       0.00000000
    O          0.89396653       0.74806614       8.24385699       0.00000000       0.00000000       0.00000000       0.00000000       0.00000000       0.00000000
    O          7.00956156      10.04088249       2.65314728       0.00000000       0.00000000       0.00000000       0.00000000       0.00000000       0.00000000
    O          5.76288651       7.88269872       1.74163856       0.00000000       0.00000000       0.00000000       0.00000000       0.00000000       0.00000000
    O          6.16188953       4.51985686       2.29198901       0.00000000       0.00000000       0.00000000       0.00000000       0.00000000       0.00000000
    O          0.74806614       7.55991201       6.16188953       0.00000000       0.00000000       0.00000000       0.00000000       0.00000000       0.00000000
    O         10.04088249       2.65314728       7.00956156       0.00000000       0.00000000       0.00000000       0.00000000       0.00000000       0.00000000
    O          5.76288651       7.92107028       7.00956156       0.00000000       0.00000000       0.00000000       0.00000000       0.00000000       0.00000000
    O          7.92107028       8.79420744       0.49496351       0.00000000       0.00000000       0.00000000       0.00000000       0.00000000       0.00000000
    O          7.88269872       3.52628444       0.49496351       0.00000000       0.00000000       0.00000000       0.00000000       0.00000000       0.00000000
    O          4.77295949       2.61477572       3.52628444       0.00000000       0.00000000       0.00000000       0.00000000       0.00000000       0.00000000
    O          8.79420744       0.49496351       7.92107028       0.00000000       0.00000000       0.00000000       0.00000000       0.00000000       0.00000000
    O          0.89396653       4.51985686       2.97593399       0.00000000       0.00000000       0.00000000       0.00000000       0.00000000       0.00000000
    O          9.64187947       6.01598914       7.55991201       0.00000000       0.00000000       0.00000000       0.00000000       0.00000000       0.00000000
    O          2.61477572       3.52628444       4.77295949       0.00000000       0.00000000       0.00000000       0.00000000       0.00000000       0.00000000
    O          6.01598914       8.24385699       4.37395647       0.00000000       0.00000000       0.00000000       0.00000000       0.00000000       0.00000000
    O          7.55991201       9.64187947       6.01598914       0.00000000       0.00000000       0.00000000       0.00000000       0.00000000       0.00000000
    O          2.29198901       6.16188953       4.51985686       0.00000000       0.00000000       0.00000000       0.00000000       0.00000000       0.00000000
    O          0.49496351       7.92107028       8.79420744       0.00000000       0.00000000       0.00000000       0.00000000       0.00000000       0.00000000
    O          8.79420744       4.77295949       2.65314728       0.00000000       0.00000000       0.00000000       0.00000000       0.00000000       0.00000000
    O          2.65314728       8.79420744       4.77295949       0.00000000       0.00000000       0.00000000       0.00000000       0.00000000       0.00000000
    O          1.74163856      10.04088249       2.61477572       0.00000000       0.00000000       0.00000000       0.00000000       0.00000000       0.00000000
    O          1.74163856       5.76288651       7.88269872       0.00000000       0.00000000       0.00000000       0.00000000       0.00000000       0.00000000
    O          2.65314728       7.00956156      10.04088249       0.00000000       0.00000000       0.00000000       0.00000000       0.00000000       0.00000000
    O          4.37395647       6.01598914       8.24385699       0.00000000       0.00000000       0.00000000       0.00000000       0.00000000       0.00000000
    O          3.52628444       0.49496351       7.88269872       0.00000000       0.00000000       0.00000000       0.00000000       0.00000000       0.00000000
    O          9.78777986       2.29198901       9.64187947       0.00000000       0.00000000       0.00000000       0.00000000       0.00000000       0.00000000
    O          6.16188953       0.74806614       7.55991201       0.00000000       0.00000000       0.00000000       0.00000000       0.00000000       0.00000000
    O          2.61477572       1.74163856      10.04088249       0.00000000       0.00000000       0.00000000       0.00000000       0.00000000       0.00000000
    O          4.37395647       9.78777986       2.97593399       0.00000000       0.00000000       0.00000000       0.00000000       0.00000000       0.00000000
    O          8.24385699       4.37395647       6.01598914       0.00000000       0.00000000       0.00000000       0.00000000       0.00000000       0.00000000
    O          9.78777986       2.97593399       4.37395647       0.00000000       0.00000000       0.00000000       0.00000000       0.00000000       0.00000000
    O          2.97593399       0.89396653       4.51985686       0.00000000       0.00000000       0.00000000       0.00000000       0.00000000       0.00000000
    O          7.92107028       7.00956156       5.76288651       0.00000000       0.00000000       0.00000000       0.00000000       0.00000000       0.00000000
    O          6.01598914       7.55991201       9.64187947       0.00000000       0.00000000       0.00000000       0.00000000       0.00000000       0.00000000
    O          7.55991201       6.16188953       0.74806614       0.00000000       0.00000000       0.00000000       0.00000000       0.00000000       0.00000000
    O          9.64187947       9.78777986       2.29198901       0.00000000       0.00000000       0.00000000       0.00000000       0.00000000       0.00000000
    O          2.29198901       9.64187947       9.78777986       0.00000000       0.00000000       0.00000000       0.00000000       0.00000000       0.00000000
    O          4.51985686       2.29198901       6.16188953       0.00000000       0.00000000       0.00000000       0.00000000       0.00000000       0.00000000
    O          0.49496351       7.88269872       3.52628444       0.00000000       0.00000000       0.00000000       0.00000000       0.00000000       0.00000000
    O          7.88269872       1.74163856       5.76288651       0.00000000       0.00000000       0.00000000       0.00000000       0.00000000       0.00000000
    O          0.74806614       8.24385699       0.89396653       0.00000000       0.00000000       0.00000000       0.00000000       0.00000000       0.00000000
    O          8.24385699       0.89396653       0.74806614       0.00000000       0.00000000       0.00000000       0.00000000       0.00000000       0.00000000
    O         10.04088249       2.61477572       1.74163856       0.00000000       0.00000000       0.00000000       0.00000000       0.00000000       0.00000000
    O          4.77295949       2.65314728       8.79420744       0.00000000       0.00000000       0.00000000       0.00000000       0.00000000       0.00000000
    O          2.97593399       4.37395647       9.78777986       0.00000000       0.00000000       0.00000000       0.00000000       0.00000000       0.00000000
    O          4.51985686       2.97593399       0.89396653       0.00000000       0.00000000       0.00000000       0.00000000       0.00000000       0.00000000
    O          3.52628444       4.77295949       2.61477572       0.00000000       0.00000000       0.00000000       0.00000000       0.00000000       0.00000000
    O          7.00956156       5.76288651       7.92107028       0.00000000       0.00000000       0.00000000       0.00000000       0.00000000       0.00000000
