576
   time=   0.000000 (fs)  Energy=  0.000000 (eV)
BOX        21.07169200       0.00000000       0.00000000       0.00000000      21.07169200       0.00000000       0.00000000       0.00000000      21.07169200
   Si          2.32075187       0.51752076       8.99089061       0.00000000       0.00000000       0.00000000       0.00000000       0.00000000       0.00000000
   Si          5.78544376       8.99089061       2.94717113       0.00000000       0.00000000       0.00000000       0.00000000       0.00000000       0.00000000
   Si          5.78544376       6.81287839       8.21509413       0.00000000       0.00000000       0.00000000       0.00000000       0.00000000       0.00000000
   Si          2.32075187       4.75040224       3.72296761       0.00000000       0.00000000       0.00000000       0.00000000       0.00000000       0.00000000
   Si         10.01832524       3.72296761       2.94717113       0.00000000       0.00000000       0.00000000       0.00000000       0.00000000       0.00000000
   Si          8.99089061       2.32075187       0.51752076       0.00000000       0.00000000       0.00000000       0.00000000       0.00000000       0.00000000
   Si          4.75040224       1.54495539       7.58867487       0.00000000       0.00000000       0.00000000       0.00000000       0.00000000       0.00000000
   Si          4.75040224       3.72296761       2.32075187       0.00000000       0.00000000       0.00000000       0.00000000       0.00000000       0.00000000
   Si          3.72296761       2.32075187       4.75040224       0.00000000       0.00000000       0.00000000       0.00000000       0.00000000       0.00000000
   Si          3.72296761       2.94717113      10.01832524       0.00000000       0.00000000       0.00000000       0.00000000       0.00000000       0.00000000
   Si         10.01832524       1.54495539       8.21509413       0.00000000       0.00000000       0.00000000       0.00000000       0.00000000       0.00000000
   Si          2.94717113       5.78544376       8.99089061       0.00000000       0.00000000       0.00000000       0.00000000       0.00000000       0.00000000
   Si          7.58867487       0.51752076       6.81287839       0.00000000       0.00000000       0.00000000       0.00000000       0.00000000       0.00000000
   Si          8.21509413      10.01832524       1.54495539       0.00000000       0.00000000       0.00000000       0.00000000       0.00000000       0.00000000
   Si          7.58867487       4.75040224       1.54495539       0.00000000       0.00000000       0.00000000       0.00000000       0.00000000       0.00000000
   Si          8.21509413       5.78544376       6.81287839       0.00000000       0.00000000       0.00000000       0.00000000       0.00000000       0.00000000
   Si          6.81287839       8.21509413       5.78544376       0.00000000       0.00000000       0.00000000       0.00000000       0.00000000       0.00000000
   Si          8.99089061       2.94717113       5.78544376       0.00000000       0.00000000       0.00000000       0.00000000       0.00000000       0.00000000
   Si          0.51752076       8.99089061       2.32075187       0.00000000       0.00000000       0.00000000       0.00000000       0.00000000       0.00000000
   Si          1.54495539       8.21509413      10.01832524       0.00000000       0.00000000       0.00000000       0.00000000       0.00000000       0.00000000
   Si          1.54495539       7.58867487       4.75040224       0.00000000       0.00000000       0.00000000       0.00000000       0.00000000       0.00000000
   Si          6.81287839       7.58867487       0.51752076       0.00000000       0.00000000       0.00000000       0.00000000       0.00000000       0.00000000
   Si          2.94717113      10.01832524       3.72296761       0.00000000       0.00000000       0.00000000       0.00000000       0.00000000       0.00000000
   Si          0.51752076       6.81287839       7.58867487       0.00000000       0.00000000       0.00000000       0.00000000       0.00000000       0.00000000
    O          0.89396653       0.74806614       8.24385699       0.00000000       0.00000000       0.00000000       0.00000000       0.00000000       0.00000000
    O          7.00956156      10.04088249       2.65314728       0.00000000       0.00000000       0.00000000       0.00000000       0.00000000       0.00000000
    O          5.76288651       7.88269872       1.74163856       0.00000000       0.00000000       0.00000000       0.00000000       0.00000000       0.00000000
    O          6.16188953       4.51985686       2.29198901       0.00000000       0.00000000       0.00000000       0.00000000       0.00000000       0.00000000
    O          0.74806614       7.55991201       6.16188953       0.00000000       0.00000000       0.00000000       0.00000000       0.00000000       0.00000000
    O         10.04088249       2.65314728       7.00956156       0.00000000       0.00000000       0.00000000       0.00000000       0.00000000       0.00000000
    O          5.76288651       7.92107028       7.00956156       0.00000000       0.00000000       0.00000000       0.00000000       0.00000000       0.00000000
    O          7.92107028       8.79420744       0.49496351       0.00000000       0.00000000       0.00000000       0.00000000       0.00000000       0.00000000
    O          7.88269872       3.52628444       0.49496351       0.00000000       0.00000000       0.00000000       0.00000000       0.00000000       0.00000000
    O          4.77295949       2.61477572       3.52628444       0.00000000       0.00000000       0.00000000       0.00000000       0.00000000       0.00000000
    O          8.79420744       0.49496351       7.92107028       0.00000000       0.00000000       0.00000000       0.00000000       0.00000000       0.00000000
    O          0.89396653       4.51985686       2.97593399       0.00000000       0.00000000       0.00000000       0.00000000       0.00000000       0.00000000
    O          9.64187947       6.01598914       7.55991201       0.00000000       0.00000000       0.00000000       0.00000000       0.00000000       0.00000000
    O          2.61477572       3.52628444       4.77295949       0.00000000       0.00000000       0.00000000       0.00000000       0.00000000       0.00000000
    O          6.01598914       8.24385699       4.37395647       0.00000000       0.00000000       0.00000000       0.00000000       0.00000000       0.00000000
    O          7.55991201       9.64187947       6.01598914       0.00000000       0.00000000       0.00000000       0.00000000       0.00000000       0.00000000
    O          2.29198901       6.16188953       4.51985686       0.00000000       0.00000000       0.00000000       0.00000000       0.00000000       0.00000000
    O          0.49496351       7.92107028       8.79420744       0.00000000       0.00000000       0.00000000       0.00000000       0.00000000       0.00000000
    O          8.79420744       4.77295949       2.65314728       0.00000000       0.00000000       0.00000000       0.00000000       0.00000000       0.00000000
    O          2.65314728       8.79420744       4.77295949       0.00000000       0.00000000       0.00000000       0.00000000       0.00000000       0.00000000
    O          1.74163856      10.04088249       2.61477572       0.00000000       0.00000000       0.00000000       0.00000000       0.00000000       0.00000000
    O          1.74163856       5.76288651       7.88269872       0.00000000       0.00000000       0.00000000       0.00000000       0.00000000       0.00000000
    O          2.65314728       7.00956156      10.04088249       0.00000000       0.00000000       0.00000000       0.00000000       0.00000000       0.00000000
    O          4.37395647       6.01598914       8.24385699       0.00000000       0.00000000       0.00000000       0.00000000       0.00000000       0.00000000
    O          3.52628444       0.49496351       7.88269872       0.00000000       0.00000000       0.00000000       0.00000000       0.00000000       0.00000000
    O          9.78777986       2.29198901       9.64187947       0.00000000       0.00000000       0.00000000       0.00000000       0.00000000       0.00000000
    O          6.16188953       0.74806614       7.55991201       0.00000000       0.00000000       0.00000000       0.00000000       0.00000000       0.00000000
    O          2.61477572       1.74163856      10.04088249       0.00000000       0.00000000       0.00000000       0.00000000       0.00000000       0.00000000
    O          4.37395647       9.78777986       2.97593399       0.00000000       0.00000000       0.00000000       0.00000000       0.00000000       0.00000000
    O          8.24385699       4.37395647       6.01598914       0.00000000       0.00000000       0.00000000       0.00000000       0.00000000       0.00000000
    O          9.78777986       2.97593399       4.37395647       0.00000000       0.00000000       0.00000000       0.00000000       0.00000000       0.00000000
    O          2.97593399       0.89396653       4.51985686       0.00000000       0.00000000       0.00000000       0.00000000       0.00000000       0.00000000
    O          7.92107028       7.00956156       5.76288651       0.00000000       0.00000000       0.00000000       0.00000000       0.00000000       0.00000000
    O          6.01598914       7.55991201       9.64187947       0.00000000       0.00000000       0.00000000       0.00000000       0.00000000       0.00000000
    O          7.55991201       6.16188953       0.74806614       0.00000000       0.00000000       0.00000000       0.00000000       0.00000000       0.00000000
    O          9.64187947       9.78777986       2.29198901       0.00000000       0.00000000       0.00000000       0.00000000       0.00000000       0.00000000
    O          2.29198901       9.64187947       9.78777986       0.00000000       0.00000000       0.00000000       0.00000000       0.00000000       0.00000000
    O          4.51985686       2.29198901       6.16188953       0.00000000       0.00000000       0.00000000       0.00000000       0.00000000       0.00000000
    O          0.49496351       7.88269872       3.52628444       0.00000000       0.00000000       0.00000000       0.00000000       0.00000000       0.00000000
    O          7.88269872       1.74163856       5.76288651       0.00000000       0.00000000       0.00000000       0.00000000       0.00000000       0.00000000
    O          0.74806614       8.24385699       0.89396653       0.00000000       0.00000000       0.00000000       0.00000000       0.00000000       0.00000000
    O          8.24385699       0.89396653       0.74806614       0.00000000       0.00000000       0.00000000       0.00000000       0.00000000       0.00000000
    O         10.04088249       2.61477572       1.74163856       0.00000000       0.00000000       0.00000000       0.00000000       0.00000000       0.00000000
    O          4.77295949       2.65314728       8.79420744       0.00000000       0.00000000       0.00000000       0.00000000       0.00000000       0.00000000
    O          2.97593399       4.37395647       9.78777986       0.00000000       0.00000000       0.00000000       0.00000000       0.00000000       0.00000000
    O          4.51985686       2.97593399       0.89396653       0.00000000       0.00000000       0.00000000       0.00000000       0.00000000       0.00000000
    O          3.52628444       4.77295949       2.61477572       0.00000000       0.00000000       0.00000000       0.00000000       0.00000000       0.00000000
    O          7.00956156       5.76288651       7.92107028       0.00000000       0.00000000       0.00000000       0.00000000       0.00000000       0.00000000
   Si          2.32075187       0.51752076      19.52673661       0.00000000       0.00000000       0.00000000       0.00000000       0.00000000       0.00000000
   Si          5.78544376       8.99089061      13.48301713       0.00000000       0.00000000       0.00000000       0.00000000       0.00000000       0.00000000
   Si          5.78544376       6.81287839      18.75094013       0.00000000       0.00000000       0.00000000       0.00000000       0.00000000       0.00000000
   Si          2.32075187       4.75040224      14.25881361       0.00000000       0.00000000       0.00000000       0.00000000       0.00000000       0.00000000
   Si         10.01832524       3.72296761      13.48301713       0.00000000       0.00000000       0.00000000       0.00000000       0.00000000       0.00000000
   Si          8.99089061       2.32075187      11.05336676       0.00000000       0.00000000       0.00000000       0.00000000       0.00000000       0.00000000
   Si          4.75040224       1.54495539      18.12452087       0.00000000       0.00000000       0.00000000       0.00000000       0.00000000       0.00000000
   Si          4.75040224       3.72296761      12.85659787       0.00000000       0.00000000       0.00000000       0.00000000       0.00000000       0.00000000
   Si          3.72296761       2.32075187      15.28624824       0.00000000       0.00000000       0.00000000       0.00000000       0.00000000       0.00000000
   Si          3.72296761       2.94717113      20.55417124       0.00000000       0.00000000       0.00000000       0.00000000       0.00000000       0.00000000
   Si         10.01832524       1.54495539      18.75094013       0.00000000       0.00000000       0.00000000       0.00000000       0.00000000       0.00000000
   Si          2.94717113       5.78544376      19.52673661       0.00000000       0.00000000       0.00000000       0.00000000       0.00000000       0.00000000
   Si          7.58867487       0.51752076      17.34872439       0.00000000       0.00000000       0.00000000       0.00000000       0.00000000       0.00000000
   Si          8.21509413      10.01832524      12.08080139       0.00000000       0.00000000       0.00000000       0.00000000       0.00000000       0.00000000
   Si          7.58867487       4.75040224      12.08080139       0.00000000       0.00000000       0.00000000       0.00000000       0.00000000       0.00000000
   Si          8.21509413       5.78544376      17.34872439       0.00000000       0.00000000       0.00000000       0.00000000       0.00000000       0.00000000
   Si          6.81287839       8.21509413      16.32128976       0.00000000       0.00000000       0.00000000       0.00000000       0.00000000       0.00000000
   Si          8.99089061       2.94717113      16.32128976       0.00000000       0.00000000       0.00000000       0.00000000       0.00000000       0.00000000
   Si          0.51752076       8.99089061      12.85659787       0.00000000       0.00000000       0.00000000       0.00000000       0.00000000       0.00000000
   Si          1.54495539       8.21509413      20.55417124       0.00000000       0.00000000       0.00000000       0.00000000       0.00000000       0.00000000
   Si          1.54495539       7.58867487      15.28624824       0.00000000       0.00000000       0.00000000       0.00000000       0.00000000       0.00000000
   Si          6.81287839       7.58867487      11.05336676       0.00000000       0.00000000       0.00000000       0.00000000       0.00000000       0.00000000
   Si          2.94717113      10.01832524      14.25881361       0.00000000       0.00000000       0.00000000       0.00000000       0.00000000       0.00000000
   Si          0.51752076       6.81287839      18.12452087       0.00000000       0.00000000       0.00000000       0.00000000       0.00000000       0.00000000
    O          0.89396653       0.74806614      18.77970299       0.00000000       0.00000000       0.00000000       0.00000000       0.00000000       0.00000000
    O          7.00956156      10.04088249      13.18899328       0.00000000       0.00000000       0.00000000       0.00000000       0.00000000       0.00000000
    O          5.76288651       7.88269872      12.27748456       0.00000000       0.00000000       0.00000000       0.00000000       0.00000000       0.00000000
    O          6.16188953       4.51985686      12.82783501       0.00000000       0.00000000       0.00000000       0.00000000       0.00000000       0.00000000
    O          0.74806614       7.55991201      16.69773553       0.00000000       0.00000000       0.00000000       0.00000000       0.00000000       0.00000000
    O         10.04088249       2.65314728      17.54540756       0.00000000       0.00000000       0.00000000       0.00000000       0.00000000       0.00000000
    O          5.76288651       7.92107028      17.54540756       0.00000000       0.00000000       0.00000000       0.00000000       0.00000000       0.00000000
    O          7.92107028       8.79420744      11.03080951       0.00000000       0.00000000       0.00000000       0.00000000       0.00000000       0.00000000
    O          7.88269872       3.52628444      11.03080951       0.00000000       0.00000000       0.00000000       0.00000000       0.00000000       0.00000000
    O          4.77295949       2.61477572      14.06213044       0.00000000       0.00000000       0.00000000       0.00000000       0.00000000       0.00000000
    O          8.79420744       0.49496351      18.45691628       0.00000000       0.00000000       0.00000000       0.00000000       0.00000000       0.00000000
    O          0.89396653       4.51985686      13.51177999       0.00000000       0.00000000       0.00000000       0.00000000       0.00000000       0.00000000
    O          9.64187947       6.01598914      18.09575801       0.00000000       0.00000000       0.00000000       0.00000000       0.00000000       0.00000000
    O          2.61477572       3.52628444      15.30880549       0.00000000       0.00000000       0.00000000       0.00000000       0.00000000       0.00000000
    O          6.01598914       8.24385699      14.90980247       0.00000000       0.00000000       0.00000000       0.00000000       0.00000000       0.00000000
    O          7.55991201       9.64187947      16.55183514       0.00000000       0.00000000       0.00000000       0.00000000       0.00000000       0.00000000
    O          2.29198901       6.16188953      15.05570286       0.00000000       0.00000000       0.00000000       0.00000000       0.00000000       0.00000000
    O          0.49496351       7.92107028      19.33005344       0.00000000       0.00000000       0.00000000       0.00000000       0.00000000       0.00000000
    O          8.79420744       4.77295949      13.18899328       0.00000000       0.00000000       0.00000000       0.00000000       0.00000000       0.00000000
    O          2.65314728       8.79420744      15.30880549       0.00000000       0.00000000       0.00000000       0.00000000       0.00000000       0.00000000
    O          1.74163856      10.04088249      13.15062172       0.00000000       0.00000000       0.00000000       0.00000000       0.00000000       0.00000000
    O          1.74163856       5.76288651      18.41854472       0.00000000       0.00000000       0.00000000       0.00000000       0.00000000       0.00000000
    O          2.65314728       7.00956156      20.57672849       0.00000000       0.00000000       0.00000000       0.00000000       0.00000000       0.00000000
    O          4.37395647       6.01598914      18.77970299       0.00000000       0.00000000       0.00000000       0.00000000       0.00000000       0.00000000
    O          3.52628444       0.49496351      18.41854472       0.00000000       0.00000000       0.00000000       0.00000000       0.00000000       0.00000000
    O          9.78777986       2.29198901      20.17772547       0.00000000       0.00000000       0.00000000       0.00000000       0.00000000       0.00000000
    O          6.16188953       0.74806614      18.09575801       0.00000000       0.00000000       0.00000000       0.00000000       0.00000000       0.00000000
    O          2.61477572       1.74163856      20.57672849       0.00000000       0.00000000       0.00000000       0.00000000       0.00000000       0.00000000
    O          4.37395647       9.78777986      13.51177999       0.00000000       0.00000000       0.00000000       0.00000000       0.00000000       0.00000000
    O          8.24385699       4.37395647      16.55183514       0.00000000       0.00000000       0.00000000       0.00000000       0.00000000       0.00000000
    O          9.78777986       2.97593399      14.90980247       0.00000000       0.00000000       0.00000000       0.00000000       0.00000000       0.00000000
    O          2.97593399       0.89396653      15.05570286       0.00000000       0.00000000       0.00000000       0.00000000       0.00000000       0.00000000
    O          7.92107028       7.00956156      16.29873251       0.00000000       0.00000000       0.00000000       0.00000000       0.00000000       0.00000000
    O          6.01598914       7.55991201      20.17772547       0.00000000       0.00000000       0.00000000       0.00000000       0.00000000       0.00000000
    O          7.55991201       6.16188953      11.28391214       0.00000000       0.00000000       0.00000000       0.00000000       0.00000000       0.00000000
    O          9.64187947       9.78777986      12.82783501       0.00000000       0.00000000       0.00000000       0.00000000       0.00000000       0.00000000
    O          2.29198901       9.64187947      20.32362586       0.00000000       0.00000000       0.00000000       0.00000000       0.00000000       0.00000000
    O          4.51985686       2.29198901      16.69773553       0.00000000       0.00000000       0.00000000       0.00000000       0.00000000       0.00000000
    O          0.49496351       7.88269872      14.06213044       0.00000000       0.00000000       0.00000000       0.00000000       0.00000000       0.00000000
    O          7.88269872       1.74163856      16.29873251       0.00000000       0.00000000       0.00000000       0.00000000       0.00000000       0.00000000
    O          0.74806614       8.24385699      11.42981253       0.00000000       0.00000000       0.00000000       0.00000000       0.00000000       0.00000000
    O          8.24385699       0.89396653      11.28391214       0.00000000       0.00000000       0.00000000       0.00000000       0.00000000       0.00000000
    O         10.04088249       2.61477572      12.27748456       0.00000000       0.00000000       0.00000000       0.00000000       0.00000000       0.00000000
    O          4.77295949       2.65314728      19.33005344       0.00000000       0.00000000       0.00000000       0.00000000       0.00000000       0.00000000
    O          2.97593399       4.37395647      20.32362586       0.00000000       0.00000000       0.00000000       0.00000000       0.00000000       0.00000000
    O          4.51985686       2.97593399      11.42981253       0.00000000       0.00000000       0.00000000       0.00000000       0.00000000       0.00000000
    O          3.52628444       4.77295949      13.15062172       0.00000000       0.00000000       0.00000000       0.00000000       0.00000000       0.00000000
    O          7.00956156       5.76288651      18.45691628       0.00000000       0.00000000       0.00000000       0.00000000       0.00000000       0.00000000
   Si          2.32075187      11.05336676       8.99089061       0.00000000       0.00000000       0.00000000       0.00000000       0.00000000       0.00000000
   Si          5.78544376      19.52673661       2.94717113       0.00000000       0.00000000       0.00000000       0.00000000       0.00000000       0.00000000
   Si          5.78544376      17.34872439       8.21509413       0.00000000       0.00000000       0.00000000       0.00000000       0.00000000       0.00000000
   Si          2.32075187      15.28624824       3.72296761       0.00000000       0.00000000       0.00000000       0.00000000       0.00000000       0.00000000
   Si         10.01832524      14.25881361       2.94717113       0.00000000       0.00000000       0.00000000       0.00000000       0.00000000       0.00000000
   Si          8.99089061      12.85659787       0.51752076       0.00000000       0.00000000       0.00000000       0.00000000       0.00000000       0.00000000
   Si          4.75040224      12.08080139       7.58867487       0.00000000       0.00000000       0.00000000       0.00000000       0.00000000       0.00000000
   Si          4.75040224      14.25881361       2.32075187       0.00000000       0.00000000       0.00000000       0.00000000       0.00000000       0.00000000
   Si          3.72296761      12.85659787       4.75040224       0.00000000       0.00000000       0.00000000       0.00000000       0.00000000       0.00000000
   Si          3.72296761      13.48301713      10.01832524       0.00000000       0.00000000       0.00000000       0.00000000       0.00000000       0.00000000
   Si         10.01832524      12.08080139       8.21509413       0.00000000       0.00000000       0.00000000       0.00000000       0.00000000       0.00000000
   Si          2.94717113      16.32128976       8.99089061       0.00000000       0.00000000       0.00000000       0.00000000       0.00000000       0.00000000
   Si          7.58867487      11.05336676       6.81287839       0.00000000       0.00000000       0.00000000       0.00000000       0.00000000       0.00000000
   Si          8.21509413      20.55417124       1.54495539       0.00000000       0.00000000       0.00000000       0.00000000       0.00000000       0.00000000
   Si          7.58867487      15.28624824       1.54495539       0.00000000       0.00000000       0.00000000       0.00000000       0.00000000       0.00000000
   Si          8.21509413      16.32128976       6.81287839       0.00000000       0.00000000       0.00000000       0.00000000       0.00000000       0.00000000
   Si          6.81287839      18.75094013       5.78544376       0.00000000       0.00000000       0.00000000       0.00000000       0.00000000       0.00000000
   Si          8.99089061      13.48301713       5.78544376       0.00000000       0.00000000       0.00000000       0.00000000       0.00000000       0.00000000
   Si          0.51752076      19.52673661       2.32075187       0.00000000       0.00000000       0.00000000       0.00000000       0.00000000       0.00000000
   Si          1.54495539      18.75094013      10.01832524       0.00000000       0.00000000       0.00000000       0.00000000       0.00000000       0.00000000
   Si          1.54495539      18.12452087       4.75040224       0.00000000       0.00000000       0.00000000       0.00000000       0.00000000       0.00000000
   Si          6.81287839      18.12452087       0.51752076       0.00000000       0.00000000       0.00000000       0.00000000       0.00000000       0.00000000
   Si          2.94717113      20.55417124       3.72296761       0.00000000       0.00000000       0.00000000       0.00000000       0.00000000       0.00000000
   Si          0.51752076      17.34872439       7.58867487       0.00000000       0.00000000       0.00000000       0.00000000       0.00000000       0.00000000
    O          0.89396653      11.28391214       8.24385699       0.00000000       0.00000000       0.00000000       0.00000000       0.00000000       0.00000000
    O          7.00956156      20.57672849       2.65314728       0.00000000       0.00000000       0.00000000       0.00000000       0.00000000       0.00000000
    O          5.76288651      18.41854472       1.74163856       0.00000000       0.00000000       0.00000000       0.00000000       0.00000000       0.00000000
    O          6.16188953      15.05570286       2.29198901       0.00000000       0.00000000       0.00000000       0.00000000       0.00000000       0.00000000
    O          0.74806614      18.09575801       6.16188953       0.00000000       0.00000000       0.00000000       0.00000000       0.00000000       0.00000000
    O         10.04088249      13.18899328       7.00956156       0.00000000       0.00000000       0.00000000       0.00000000       0.00000000       0.00000000
    O          5.76288651      18.45691628       7.00956156       0.00000000       0.00000000       0.00000000       0.00000000       0.00000000       0.00000000
    O          7.92107028      19.33005344       0.49496351       0.00000000       0.00000000       0.00000000       0.00000000       0.00000000       0.00000000
    O          7.88269872      14.06213044       0.49496351       0.00000000       0.00000000       0.00000000       0.00000000       0.00000000       0.00000000
    O          4.77295949      13.15062172       3.52628444       0.00000000       0.00000000       0.00000000       0.00000000       0.00000000       0.00000000
    O          8.79420744      11.03080951       7.92107028       0.00000000       0.00000000       0.00000000       0.00000000       0.00000000       0.00000000
    O          0.89396653      15.05570286       2.97593399       0.00000000       0.00000000       0.00000000       0.00000000       0.00000000       0.00000000
    O          9.64187947      16.55183514       7.55991201       0.00000000       0.00000000       0.00000000       0.00000000       0.00000000       0.00000000
    O          2.61477572      14.06213044       4.77295949       0.00000000       0.00000000       0.00000000       0.00000000       0.00000000       0.00000000
    O          6.01598914      18.77970299       4.37395647       0.00000000       0.00000000       0.00000000       0.00000000       0.00000000       0.00000000