250
   time=   0.000000 (fs)  Energy=  0.000000 (eV)
BOX         7.07106780       0.00000000       0.00000000       0.00000000       5.00000000       0.00000000       0.00000000       0.00000000       7.07106780
    W          0.00000000       0.00000000       0.00000000       0.00000000       0.00000000       0.00000000       0.00000000       0.00000000       0.00000000
    W          0.00000000       0.50000000       0.70710678       0.00000000       0.00000000       0.00000000       0.00000000       0.00000000       0.00000000
    W          0.00000000       0.00000000       1.41421356       0.00000000       0.00000000       0.00000000       0.00000000       0.00000000       0.00000000
    W          0.00000000       0.50000000       2.12132034       0.00000000       0.00000000       0.00000000       0.00000000       0.00000000       0.00000000
    W          0.00000000       0.00000000       2.82842712       0.00000000       0.00000000       0.00000000       0.00000000       0.00000000       0.00000000
    W          0.00000000       0.50000000       3.53553390       0.00000000       0.00000000       0.00000000       0.00000000       0.00000000       0.00000000
    W          0.00000000       0.00000000       4.24264068       0.00000000       0.00000000       0.00000000       0.00000000       0.00000000       0.00000000
    W          0.00000000       0.50000000       4.94974746       0.00000000       0.00000000       0.00000000       0.00000000       0.00000000       0.00000000
    W          0.00000000       0.00000000       5.65685424       0.00000000       0.00000000       0.00000000       0.00000000       0.00000000       0.00000000
    W          0.00000000       0.50000000       6.36396102       0.00000000       0.00000000       0.00000000       0.00000000       0.00000000       0.00000000
    W          0.00000000       1.00000000       0.00000000       0.00000000       0.00000000       0.00000000       0.00000000       0.00000000       0.00000000
    W          0.00000000       1.50000000       0.70710678       0.00000000       0.00000000       0.00000000       0.00000000       0.00000000       0.00000000
    W          0.00000000       1.00000000       1.41421356       0.00000000       0.00000000       0.00000000       0.00000000       0.00000000       0.00000000
    W          0.00000000       1.50000000       2.12132034       0.00000000       0.00000000       0.00000000       0.00000000       0.00000000       0.00000000
    W          0.00000000       1.00000000       2.82842712       0.00000000       0.00000000       0.00000000       0.00000000       0.00000000       0.00000000
    W          0.00000000       1.50000000       3.53553390       0.00000000       0.00000000       0.00000000       0.00000000       0.00000000       0.00000000
    W          0.00000000       1.00000000       4.24264068       0.00000000       0.00000000       0.00000000       0.00000000       0.00000000       0.00000000
    W          0.00000000       1.50000000       4.94974746       0.00000000       0.00000000       0.00000000       0.00000000       0.00000000       0.00000000
    W          0.00000000       1.00000000       5.65685424       0.00000000       0.00000000       0.00000000       0.00000000       0.00000000       0.00000000
    W          0.00000000       1.50000000       6.36396102       0.00000000       0.00000000       0.00000000       0.00000000       0.00000000       0.00000000
    W          0.00000000       2.00000000       0.00000000       0.00000000       0.00000000       0.00000000       0.00000000       0.00000000       0.00000000
    W          0.00000000       2.50000000       0.70710678       0.00000000       0.00000000       0.00000000       0.00000000       0.00000000       0.00000000
    W          0.00000000       2.00000000       1.41421356       0.00000000       0.00000000       0.00000000       0.00000000       0.00000000       0.00000000
    W          0.00000000       2.50000000       2.12132034       0.00000000       0.00000000       0.00000000       0.00000000       0.00000000       0.00000000
    W          0.00000000       2.00000000       2.82842712       0.00000000       0.00000000       0.00000000       0.00000000       0.00000000       0.00000000
    W          0.00000000       2.50000000       3.53553390       0.00000000       0.00000000       0.00000000       0.00000000       0.00000000       0.00000000
    W          0.00000000       2.00000000       4.24264068       0.00000000       0.00000000       0.00000000       0.00000000       0.00000000       0.00000000
    W          0.00000000       2.50000000       4.94974746       0.00000000       0.00000000       0.00000000       0.00000000       0.00000000       0.00000000
    W          0.00000000       2.00000000       5.65685424       0.00000000       0.00000000       0.00000000       0.00000000       0.00000000       0.00000000
    W          0.00000000       2.50000000       6.36396102       0.00000000       0.00000000       0.00000000       0.00000000       0.00000000       0.00000000
    W          0.00000000       3.00000000       0.00000000       0.00000000       0.00000000       0.00000000       0.00000000       0.00000000       0.00000000
    W          0.00000000       3.50000000       0.70710678       0.00000000       0.00000000       0.00000000       0.00000000       0.00000000       0.00000000
    W          0.00000000       3.00000000       1.41421356       0.00000000       0.00000000       0.00000000       0.00000000       0.00000000       0.00000000
    W          0.00000000       3.50000000       2.12132034       0.00000000       0.00000000       0.00000000       0.00000000       0.00000000       0.00000000
    W          0.00000000       3.00000000       2.82842712       0.00000000       0.00000000       0.00000000       0.00000000       0.00000000       0.00000000
    W          0.00000000       3.50000000       3.53553390       0.00000000       0.00000000       0.00000000       0.00000000       0.00000000       0.00000000
    W          0.00000000       3.00000000       4.24264068       0.00000000       0.00000000       0.00000000       0.00000000       0.00000000       0.00000000
    W          0.00000000       3.50000000       4.94974746       0.00000000       0.00000000       0.00000000       0.00000000       0.00000000       0.00000000
    W          0.00000000       3.00000000       5.65685424       0.00000000       0.00000000       0.00000000       0.00000000       0.00000000       0.00000000
    W          0.00000000       3.50000000       6.36396102       0.00000000       0.00000000       0.00000000       0.00000000       0.00000000       0.00000000
    W          0.00000000       4.00000000       0.00000000       0.00000000       0.00000000       0.00000000       0.00000000       0.00000000       0.00000000
    W          0.00000000       4.50000000       0.70710678       0.00000000       0.00000000       0.00000000       0.00000000       0.00000000       0.00000000
    W          0.00000000       4.00000000       1.41421356       0.00000000       0.00000000       0.00000000       0.00000000       0.00000000       0.00000000
    W          0.00000000       4.50000000       2.12132034       0.00000000       0.00000000       0.00000000       0.00000000       0.00000000       0.00000000
    W          0.00000000       4.00000000       2.82842712       0.00000000       0.00000000       0.00000000       0.00000000       0.00000000       0.00000000
    W          0.00000000       4.50000000       3.53553390       0.00000000       0.00000000       0.00000000       0.00000000       0.00000000       0.00000000
    W          0.00000000       4.00000000       4.24264068       0.00000000       0.00000000       0.00000000       0.00000000       0.00000000       0.00000000
    W          0.00000000       4.50000000       4.94974746       0.00000000       0.00000000       0.00000000       0.00000000       0.00000000       0.00000000
    W          0.00000000       4.00000000       5.65685424       0.00000000       0.00000000       0.00000000       0.00000000       0.00000000       0.00000000
    W          0.00000000       4.50000000       6.36396102       0.00000000       0.00000000       0.00000000       0.00000000       0.00000000       0.00000000
    W          1.41421356       0.00000000       0.00000000       0.00000000       0.00000000       0.00000000       0.00000000       0.00000000       0.00000000
    W          1.41421356       0.50000000       0.70710678       0.00000000       0.00000000       0.00000000       0.00000000       0.00000000       0.00000000
    W          1.41421356       0.00000000       1.41421356       0.00000000       0.00000000       0.00000000       0.00000000       0.00000000       0.00000000
    W          1.41421356       0.50000000       2.12132034       0.00000000       0.00000000       0.00000000       0.00000000       0.00000000       0.00000000
    W          1.41421356       0.00000000       2.82842712       0.00000000       0.00000000       0.00000000       0.00000000       0.00000000       0.00000000
    W          1.41421356       0.50000000       3.53553390       0.00000000       0.00000000       0.00000000       0.00000000       0.00000000       0.00000000
    W          1.41421356       0.00000000       4.24264068       0.00000000       0.00000000       0.00000000       0.00000000       0.00000000       0.00000000
    W          1.41421356       0.50000000       4.94974746       0.00000000       0.00000000       0.00000000       0.00000000       0.00000000       0.00000000
    W          1.41421356       0.00000000       5.65685424       0.00000000       0.00000000       0.00000000       0.00000000       0.00000000       0.00000000
    W          1.41421356       0.50000000       6.36396102       0.00000000       0.00000000       0.00000000       0.00000000       0.00000000       0.00000000
    W          1.41421356       1.00000000       0.00000000       0.00000000       0.00000000       0.00000000       0.00000000       0.00000000       0.00000000
    W          1.41421356       1.50000000       0.70710678       0.00000000       0.00000000       0.00000000       0.00000000       0.00000000       0.00000000
    W          1.41421356       1.00000000       1.41421356       0.00000000       0.00000000       0.00000000       0.00000000       0.00000000       0.00000000
    W          1.41421356       1.50000000       2.12132034       0.00000000       0.00000000       0.00000000       0.00000000       0.00000000       0.00000000
    W          1.41421356       1.00000000       2.82842712       0.00000000       0.00000000       0.00000000       0.00000000       0.00000000       0.00000000
    W          1.41421356       1.50000000       3.53553390       0.00000000       0.00000000       0.00000000       0.00000000       0.00000000       0.00000000
    W          1.41421356       1.00000000       4.24264068       0.00000000       0.00000000       0.00000000       0.00000000       0.00000000       0.00000000
    W          1.41421356       1.50000000       4.94974746       0.00000000       0.00000000       0.00000000       0.00000000       0.00000000       0.00000000
    W          1.41421356       1.00000000       5.65685424       0.00000000       0.00000000       0.00000000       0.00000000       0.00000000       0.00000000
    W          1.41421356       1.50000000       6.36396102       0.00000000       0.00000000       0.00000000       0.00000000       0.00000000       0.00000000
    W          1.41421356       2.00000000       0.00000000       0.00000000       0.00000000       0.00000000       0.00000000       0.00000000       0.00000000
    W          1.41421356       2.50000000       0.70710678       0.00000000       0.00000000       0.00000000       0.00000000       0.00000000       0.00000000
    W          1.41421356       2.00000000       1.41421356       0.00000000       0.00000000       0.00000000       0.00000000       0.00000000       0.00000000
    W          1.41421356       2.50000000       2.12132034       0.00000000       0.00000000       0.00000000       0.00000000       0.00000000       0.00000000
    W          1.41421356       2.00000000       2.82842712       0.00000000       0.00000000       0.00000000       0.00000000       0.00000000       0.00000000
    W          1.41421356       2.50000000       3.53553390       0.00000000       0.00000000       0.00000000       0.00000000       0.00000000       0.00000000
    W          1.41421356       2.00000000       4.24264068       0.00000000       0.00000000       0.00000000       0.00000000       0.00000000       0.00000000
    W          1.41421356       2.50000000       4.94974746       0.00000000       0.00000000       0.00000000       0.00000000       0.00000000       0.00000000
    W          1.41421356       2.00000000       5.65685424       0.00000000       0.00000000       0.00000000       0.00000000       0.00000000       0.00000000
    W          1.41421356       2.50000000       6.36396102       0.00000000       0.00000000       0.00000000       0.00000000       0.00000000       0.00000000
    W          1.41421356       3.00000000       0.00000000       0.00000000       0.00000000       0.00000000       0.00000000       0.00000000       0.00000000
    W          1.41421356       3.50000000       0.70710678       0.00000000       0.00000000       0.00000000       0.00000000       0.00000000       0.00000000
    W          1.41421356       3.00000000       1.41421356       0.00000000       0.00000000       0.00000000       0.00000000       0.00000000       0.00000000
    W          1.41421356       3.50000000       2.12132034       0.00000000       0.00000000       0.00000000       0.00000000       0.00000000       0.00000000
    W          1.41421356       3.00000000       2.82842712       0.00000000       0.00000000       0.00000000       0.00000000       0.00000000       0.00000000
    W          1.41421356       3.50000000       3.53553390       0.00000000       0.00000000       0.00000000       0.00000000       0.00000000       0.00000000
    W          1.41421356       3.00000000       4.24264068       0.00000000       0.00000000       0.00000000       0.00000000       0.00000000       0.00000000
    W          1.41421356       3.50000000       4.94974746       0.00000000       0.00000000       0.00000000       0.00000000       0.00000000       0.00000000
    W          1.41421356       3.00000000       5.65685424       0.00000000       0.00000000       0.00000000       0.00000000       0.00000000       0.00000000
    W          1.41421356       3.50000000       6.36396102       0.00000000       0.00000000       0.00000000       0.00000000       0.00000000       0.00000000
    W          1.41421356       4.00000000       0.00000000       0.00000000       0.00000000       0.00000000       0.00000000       0.00000000       0.00000000
    W          1.41421356       4.50000000       0.70710678       0.00000000       0.00000000       0.00000000       0.00000000       0.00000000       0.00000000
    W          1.41421356       4.00000000       1.41421356       0.00000000       0.00000000       0.00000000       0.00000000       0.00000000       0.00000000
    W          1.41421356       4.50000000       2.12132034       0.00000000       0.00000000       0.00000000       0.00000000       0.00000000       0.00000000
    W          1.41421356       4.00000000       2.82842712       0.00000000       0.00000000       0.00000000       0.00000000       0.00000000       0.00000000
    W          1.41421356       4.50000000       3.53553390       0.00000000       0.00000000       0.00000000       0.00000000       0.00000000       0.00000000
    W          1.41421356       4.00000000       4.24264068       0.00000000       0.00000000       0.00000000       0.00000000       0.00000000       0.00000000
    W          1.41421356       4.50000000       4.94974746       0.00000000       0.00000000       0.00000000       0.00000000       0.00000000       0.00000000
    W          1.41421356       4.00000000       5.65685424       0.00000000       0.00000000       0.00000000       0.00000000       0.00000000       0.00000000
    W          1.41421356       4.50000000       6.36396102       0.00000000       0.00000000       0.00000000       0.00000000       0.00000000       0.00000000
    W          2.82842712       0.00000000       0.00000000       0.00000000       0.00000000       0.00000000       0.00000000       0.00000000       0.00000000
    W          2.82842712       0.50000000       0.70710678       0.00000000       0.00000000       0.00000000       0.00000000       0.00000000       0.00000000
    W          2.82842712       0.00000000       1.41421356       0.00000000       0.00000000       0.00000000       0.00000000       0.00000000       0.00000000
    W          2.82842712       0.50000000       2.12132034       0.00000000       0.00000000       0.00000000       0.00000000       0.00000000       0.00000000
    W          2.82842712       0.00000000       2.82842712       0.00000000       0.00000000       0.00000000       0.00000000       0.00000000       0.00000000
    W          2.82842712       0.50000000       3.53553390       0.00000000       0.00000000       0.00000000       0.00000000       0.00000000       0.00000000
    W          2.82842712       0.00000000       4.24264068       0.00000000       0.00000000       0.00000000       0.00000000       0.00000000       0.00000000
    W          2.82842712       0.50000000       4.94974746       0.00000000       0.00000000       0.00000000       0.00000000       0.00000000       0.00000000
    W          2.82842712       0.00000000       5.65685424       0.00000000       0.00000000       0.00000000       0.00000000       0.00000000       0.00000000
    W          2.82842712       0.50000000       6.36396102       0.00000000       0.00000000       0.00000000       0.00000000       0.00000000       0.00000000
    W          2.82842712       1.00000000       0.00000000       0.00000000       0.00000000       0.00000000       0.00000000       0.00000000       0.00000000
    W          2.82842712       1.50000000       0.70710678       0.00000000       0.00000000       0.00000000       0.00000000       0.00000000       0.00000000
    W          2.82842712       1.00000000       1.41421356       0.00000000       0.00000000       0.00000000       0.00000000       0.00000000       0.00000000
    W          2.82842712       1.50000000       2.12132034       0.00000000       0.00000000       0.00000000       0.00000000       0.00000000       0.00000000
    W          2.82842712       1.00000000       2.82842712       0.00000000       0.00000000       0.00000000       0.00000000       0.00000000       0.00000000
    W          2.82842712       1.50000000       3.53553390       0.00000000       0.00000000       0.00000000       0.00000000       0.00000000       0.00000000
    W          2.82842712       1.00000000       4.24264068       0.00000000       0.00000000       0.00000000       0.00000000       0.00000000       0.00000000
    W          2.82842712       1.50000000       4.94974746       0.00000000       0.00000000       0.00000000       0.00000000       0.00000000       0.00000000
    W          2.82842712       1.00000000       5.65685424       0.00000000       0.00000000       0.00000000       0.00000000       0.00000000       0.00000000
    W          2.82842712       1.50000000       6.36396102       0.00000000       0.00000000       0.00000000       0.00000000       0.00000000       0.00000000
    W          2.82842712       2.00000000       0.00000000       0.00000000       0.00000000       0.00000000       0.00000000       0.00000000       0.00000000
    W          2.82842712       2.50000000       0.70710678       0.00000000       0.00000000       0.00000000       0.00000000       0.00000000       0.00000000
    W          2.82842712       2.00000000       1.41421356       0.00000000       0.00000000       0.00000000       0.00000000       0.00000000       0.00000000
    W          2.82842712       2.50000000       2.12132034       0.00000000       0.00000000       0.00000000       0.00000000       0.00000000       0.00000000
    W          2.82842712       2.00000000       2.82842712       0.00000000       0.00000000       0.00000000       0.00000000       0.00000000       0.00000000
    W          2.82842712       2.50000000       3.53553390       0.00000000       0.00000000       0.00000000       0.00000000       0.00000000       0.00000000
    W          2.82842712       2.00000000       4.24264068       0.00000000       0.00000000       0.00000000       0.00000000       0.00000000       0.00000000
    W          2.82842712       2.50000000       4.94974746       0.00000000       0.00000000       0.00000000       0.00000000       0.00000000       0.00000000
    W          2.82842712       2.00000000       5.65685424       0.00000000       0.00000000       0.00000000       0.00000000       0.00000000       0.00000000
    W          2.82842712       2.50000000       6.36396102       0.00000000       0.00000000       0.00000000       0.00000000       0.00000000       0.00000000
    W          2.82842712       3.00000000       0.00000000       0.00000000       0.00000000       0.00000000       0.00000000       0.00000000       0.00000000
    W          2.82842712       3.50000000       0.70710678       0.00000000       0.00000000       0.00000000       0.00000000       0.00000000       0.00000000
    W          2.82842712       3.00000000       1.41421356       0.00000000       0.00000000       0.00000000       0.00000000       0.00000000       0.00000000
    W          2.82842712       3.50000000       2.12132034       0.00000000       0.00000000       0.00000000       0.00000000       0.00000000       0.00000000
    W          2.82842712       3.00000000       2.82842712       0.00000000       0.00000000       0.00000000       0.00000000       0.00000000       0.00000000
    W          2.82842712       3.50000000       3.53553390       0.00000000       0.00000000       0.00000000       0.00000000       0.00000000       0.00000000
    W          2.82842712       3.00000000       4.24264068       0.00000000       0.00000000       0.00000000       0.00000000       0.00000000       0.00000000
    W          2.82842712       3.50000000       4.94974746       0.00000000       0.00000000       0.00000000       0.00000000       0.00000000       0.00000000
    W          2.82842712       3.00000000       5.65685424       0.00000000       0.00000000       0.00000000       0.00000000       0.00000000       0.00000000
    W          2.82842712       3.50000000       6.36396102       0.00000000       0.00000000       0.00000000       0.00000000       0.00000000       0.00000000
    W          2.82842712       4.00000000       0.00000000       0.00000000       0.00000000       0.00000000       0.00000000       0.00000000       0.00000000
    W          2.82842712       4.50000000       0.70710678       0.00000000       0.00000000       0.00000000       0.00000000       0.00000000       0.00000000
    W          2.82842712       4.00000000       1.41421356       0.00000000       0.00000000       0.00000000       0.00000000       0.00000000       0.00000000
    W          2.82842712       4.50000000       2.12132034       0.00000000       0.00000000       0.00000000       0.00000000       0.00000000       0.00000000
    W          2.82842712       4.00000000       2.82842712       0.00000000       0.00000000       0.00000000       0.00000000       0.00000000       0.00000000
    W          2.82842712       4.50000000       3.53553390       0.00000000       0.00000000       0.00000000       0.00000000       0.00000000       0.00000000
    W          2.82842712       4.00000000       4.24264068       0.00000000       0.00000000       0.00000000       0.00000000       0.00000000       0.00000000
    W          2.82842712       4.50000000       4.94974746       0.00000000       0.00000000       0.00000000       0.00000000       0.00000000       0.00000000
    W          2.82842712       4.00000000       5.65685424       0.00000000       0.00000000       0.00000000       0.00000000       0.00000000       0.00000000
    W          2.82842712       4.50000000       6.36396102       0.00000000       0.00000000       0.00000000       0.00000000       0.00000000       0.00000000
    W          4.24264068       0.00000000       0.00000000       0.00000000       0.00000000       0.00000000       0.00000000       0.00000000       0.00000000
    W          4.24264068       0.50000000       0.70710678       0.00000000       0.00000000       0.00000000       0.00000000       0.00000000       0.00000000
    W          4.24264068       0.00000000       1.41421356       0.00000000       0.00000000       0.00000000       0.00000000       0.00000000       0.00000000
    W          4.24264068       0.50000000       2.12132034       0.00000000       0.00000000       0.00000000       0.00000000       0.00000000       0.00000000
    W          4.24264068       0.00000000       2.82842712       0.00000000       0.00000000       0.00000000       0.00000000       0.00000000       0.00000000
    W          4.24264068       0.50000000       3.53553390       0.00000000       0.00000000       0.00000000       0.00000000       0.00000000       0.00000000
    W          4.24264068       0.00000000       4.24264068       0.00000000       0.00000000       0.00000000       0.00000000       0.00000000       0.00000000
    W          4.24264068       0.50000000       4.94974746       0.00000000       0.00000000       0.00000000       0.00000000       0.00000000       0.00000000
    W          4.24264068       0.00000000       5.65685424       0.00000000       0.00000000       0.00000000       0.00000000       0.00000000       0.00000000
    W          4.24264068       0.50000000       6.36396102       0.00000000       0.00000000       0.00000000       0.00000000       0.00000000       0.00000000
    W          4.24264068       1.00000000       0.00000000       0.00000000       0.00000000       0.00000000       0.00000000       0.00000000       0.00000000
    W          4.24264068       1.50000000       0.70710678       0.00000000       0.00000000       0.00000000       0.00000000       0.00000000       0.00000000
    W          4.24264068       1.00000000       1.41421356       0.00000000       0.00000000       0.00000000       0.00000000       0.00000000       0.00000000
    W          4.24264068       1.50000000       2.12132034       0.00000000       0.00000000       0.00000000       0.00000000       0.00000000       0.00000000
    W          4.24264068       1.00000000       2.82842712       0.00000000       0.00000000       0.00000000       0.00000000       0.00000000       0.00000000
    W          4.24264068       1.50000000       3.53553390       0.00000000       0.00000000       0.00000000       0.00000000       0.00000000       0.00000000
    W          4.24264068       1.00000000       4.24264068       0.00000000       0.00000000       0.00000000       0.00000000       0.00000000       0.00000000
    W          4.24264068       1.50000000       4.94974746       0.00000000       0.00000000       0.00000000       0.00000000       0.00000000       0.00000000
    W          4.24264068       1.00000000       5.65685424       0.00000000       0.00000000       0.00000000       0.00000000       0.00000000       0.00000000
    W          4.24264068       1.50000000       6.36396102       0.00000000       0.00000000       0.00000000       0.00000000       0.00000000       0.00000000
    W          4.24264068       2.00000000       0.00000000       0.00000000       0.00000000       0.00000000       0.00000000       0.00000000       0.00000000
    W          4.24264068       2.50000000       0.70710678       0.00000000       0.00000000       0.00000000       0.00000000       0.00000000       0.00000000
    W          4.24264068       2.00000000       1.41421356       0.00000000       0.00000000       0.00000000       0.00000000       0.00000000       0.00000000
    W          4.24264068       2.50000000       2.12132034       0.00000000       0.00000000       0.00000000       0.00000000       0.00000000       0.00000000
    W          4.24264068       2.00000000       2.82842712       0.00000000       0.00000000       0.00000000       0.00000000       0.00000000       0.00000000
    W          4.24264068       2.50000000       3.53553390       0.00000000       0.00000000       0.00000000       0.00000000       0.00000000       0.00000000
    W          4.24264068       2.00000000       4.24264068       0.00000000       0.00000000       0.00000000       0.00000000       0.00000000       0.00000000
    W          4.24264068       2.50000000       4.94974746       0.00000000       0.00000000       0.00000000       0.00000000       0.00000000       0.00000000
    W          4.24264068       2.00000000       5.65685424       0.00000000       0.00000000       0.00000000       0.00000000       0.00000000       0.00000000
    W          4.24264068       2.50000000       6.36396102       0.00000000       0.00000000       0.00000000       0.00000000       0.00000000       0.00000000
    W          4.24264068       3.00000000       0.00000000       0.00000000       0.00000000       0.00000000       0.00000000       0.00000000       0.00000000
    W          4.24264068       3.50000000       0.70710678       0.00000000       0.00000000       0.00000000       0.00000000       0.00000000       0.00000000
    W          4.24264068       3.00000000       1.41421356       0.00000000       0.00000000       0.00000000       0.00000000       0.00000000       0.00000000