432
   time=   0.000000 (fs)  Energy=  0.000000 (eV)
BOX         0.00000000       0.00000000      10.00000000       0.00000000      10.00000000       0.00000000      10.00000000       0.00000000       0.00000000
    W          0.00000000       0.00000000       0.00000000       0.00000000       0.00000000       0.00000000       0.00000000       0.00000000       0.00000000
    W          1.00000000       1.00000000       1.00000000       0.00000000       0.00000000       0.00000000       0.00000000       0.00000000       0.00000000
    W          0.00000000       0.00000000       2.00000000       0.00000000       0.00000000       0.00000000       0.00000000       0.00000000       0.00000000
    W          1.00000000       1.00000000       3.00000000       0.00000000       0.00000000       0.00000000       0.00000000       0.00000000       0.00000000
    W          0.00000000       0.00000000       4.00000000       0.00000000       0.00000000       0.00000000       0.00000000       0.00000000       0.00000000
    W          1.00000000       1.00000000       5.00000000       0.00000000       0.00000000       0.00000000       0.00000000       0.00000000       0.00000000
    W          0.00000000       0.00000000       6.00000000       0.00000000       0.00000000       0.00000000       0.00000000       0.00000000       0.00000000
    W          1.00000000       1.00000000       7.00000000       0.00000000       0.00000000       0.00000000       0.00000000       0.00000000       0.00000000
    W          0.00000000       0.00000000       8.00000000       0.00000000       0.00000000       0.00000000       0.00000000       0.00000000       0.00000000
    W          1.00000000       1.00000000       9.00000000       0.00000000       0.00000000       0.00000000       0.00000000       0.00000000       0.00000000
    W          0.00000000       0.00000000      10.00000000       0.00000000       0.00000000       0.00000000       0.00000000       0.00000000       0.00000000
    W          1.00000000       1.00000000      11.00000000       0.00000000       0.00000000       0.00000000       0.00000000       0.00000000       0.00000000
    W          0.00000000       2.00000000       0.00000000       0.00000000       0.00000000       0.00000000       0.00000000       0.00000000       0.00000000
    W          1.00000000       3.00000000       1.00000000       0.00000000       0.00000000       0.00000000       0.00000000       0.00000000       0.00000000
    W          0.00000000       2.00000000       2.00000000       0.00000000       0.00000000       0.00000000       0.00000000       0.00000000       0.00000000
    W          1.00000000       3.00000000       3.00000000       0.00000000       0.00000000       0.00000000       0.00000000       0.00000000       0.00000000
    W          0.00000000       2.00000000       4.00000000       0.00000000       0.00000000       0.00000000       0.00000000       0.00000000       0.00000000
    W          1.00000000       3.00000000       5.00000000       0.00000000       0.00000000       0.00000000       0.00000000       0.00000000       0.00000000
    W          0.00000000       2.00000000       6.00000000       0.00000000       0.00000000       0.00000000       0.00000000       0.00000000       0.00000000
    W          1.00000000       3.00000000       7.00000000       0.00000000       0.00000000       0.00000000       0.00000000       0.00000000       0.00000000
    W          0.00000000       2.00000000       8.00000000       0.00000000       0.00000000       0.00000000       0.00000000       0.00000000       0.00000000
    W          1.00000000       3.00000000       9.00000000       0.00000000       0.00000000       0.00000000       0.00000000       0.00000000       0.00000000
    W          0.00000000       2.00000000      10.00000000       0.00000000       0.00000000       0.00000000       0.00000000       0.00000000       0.00000000
    W          1.00000000       3.00000000      11.00000000       0.00000000       0.00000000       0.00000000       0.00000000       0.00000000       0.00000000
    W          0.00000000       4.00000000       0.00000000       0.00000000       0.00000000       0.00000000       0.00000000       0.00000000       0.00000000
    W          1.00000000       5.00000000       1.00000000       0.00000000       0.00000000       0.00000000       0.00000000       0.00000000       0.00000000
    W          0.00000000       4.00000000       2.00000000       0.00000000       0.00000000       0.00000000       0.00000000       0.00000000       0.00000000
    W          1.00000000       5.00000000       3.00000000       0.00000000       0.00000000       0.00000000       0.00000000       0.00000000       0.00000000
    W          0.00000000       4.00000000       4.00000000       0.00000000       0.00000000       0.00000000       0.00000000       0.00000000       0.00000000
    W          1.00000000       5.00000000       5.00000000       0.00000000       0.00000000       0.00000000       0.00000000       0.00000000       0.00000000
    W          0.00000000       4.00000000       6.00000000       0.00000000       0.00000000       0.00000000       0.00000000       0.00000000       0.00000000
    W          1.00000000       5.00000000       7.00000000       0.00000000       0.00000000       0.00000000       0.00000000       0.00000000       0.00000000
    W          0.00000000       4.00000000       8.00000000       0.00000000       0.00000000       0.00000000       0.00000000       0.00000000       0.00000000
    W          1.00000000       5.00000000       9.00000000       0.00000000       0.00000000       0.00000000       0.00000000       0.00000000       0.00000000
    W          0.00000000       4.00000000      10.00000000       0.00000000       0.00000000       0.00000000       0.00000000       0.00000000       0.00000000
    W          1.00000000       5.00000000      11.00000000       0.00000000       0.00000000       0.00000000       0.00000000       0.00000000       0.00000000
    W          0.00000000       6.00000000       0.00000000       0.00000000       0.00000000       0.00000000       0.00000000       0.00000000       0.00000000
    W          1.00000000       7.00000000       1.00000000       0.00000000       0.00000000       0.00000000       0.00000000       0.00000000       0.00000000
    W          0.00000000       6.00000000       2.00000000       0.00000000       0.00000000       0.00000000       0.00000000       0.00000000       0.00000000
    W          1.00000000       7.00000000       3.00000000       0.00000000       0.00000000       0.00000000       0.00000000       0.00000000       0.00000000
    W          0.00000000       6.00000000       4.00000000       0.00000000       0.00000000       0.00000000       0.00000000       0.00000000       0.00000000
    W          1.00000000       7.00000000       5.00000000       0.00000000       0.00000000       0.00000000       0.00000000       0.00000000       0.00000000
    W          0.00000000       6.00000000       6.00000000       0.00000000       0.00000000       0.00000000       0.00000000       0.00000000       0.00000000
    W          1.00000000       7.00000000       7.00000000       0.00000000       0.00000000       0.00000000       0.00000000       0.00000000       0.00000000
    W          0.00000000       6.00000000       8.00000000       0.00000000       0.00000000       0.00000000       0.00000000       0.00000000       0.00000000
    W          1.00000000       7.00000000       9.00000000       0.00000000       0.00000000       0.00000000       0.00000000       0.00000000       0.00000000
    W          0.00000000       6.00000000      10.00000000       0.00000000       0.00000000       0.00000000       0.00000000       0.00000000       0.00000000
    W          1.00000000       7.00000000      11.00000000       0.00000000       0.00000000       0.00000000       0.00000000       0.00000000       0.00000000
    W          0.00000000       8.00000000       0.00000000       0.00000000       0.00000000       0.00000000       0.00000000       0.00000000       0.00000000
    W          1.00000000       9.00000000       1.00000000       0.00000000       0.00000000       0.00000000       0.00000000       0.00000000       0.00000000
    W          0.00000000       8.00000000       2.00000000       0.00000000       0.00000000       0.00000000       0.00000000       0.00000000       0.00000000
    W          1.00000000       9.00000000       3.00000000       0.00000000       0.00000000       0.00000000       0.00000000       0.00000000       0.00000000
    W          0.00000000       8.00000000       4.00000000       0.00000000       0.00000000       0.00000000       0.00000000       0.00000000       0.00000000
    W          1.00000000       9.00000000       5.00000000       0.00000000       0.00000000       0.00000000       0.00000000       0.00000000       0.00000000
    W          0.00000000       8.00000000       6.00000000       0.00000000       0.00000000       0.00000000       0.00000000       0.00000000       0.00000000
    W          1.00000000       9.00000000       7.00000000       0.00000000       0.00000000       0.00000000       0.00000000       0.00000000       0.00000000
    W          0.00000000       8.00000000       8.00000000       0.00000000       0.00000000       0.00000000       0.00000000       0.00000000       0.00000000
    W          1.00000000       9.00000000       9.00000000       0.00000000       0.00000000       0.00000000       0.00000000       0.00000000       0.00000000
    W          0.00000000       8.00000000      10.00000000       0.00000000       0.00000000       0.00000000       0.00000000       0.00000000       0.00000000
    W          1.00000000       9.00000000      11.00000000       0.00000000       0.00000000       0.00000000       0.00000000       0.00000000       0.00000000
    W          0.00000000      10.00000000       0.00000000       0.00000000       0.00000000       0.00000000       0.00000000       0.00000000       0.00000000
    W          1.00000000      11.00000000       1.00000000       0.00000000       0.00000000       0.00000000       0.00000000       0.00000000       0.00000000
    W          0.00000000      10.00000000       2.00000000       0.00000000       0.00000000       0.00000000       0.00000000       0.00000000       0.00000000
    W          1.00000000      11.00000000       3.00000000       0.00000000       0.00000000       0.00000000       0.00000000       0.00000000       0.00000000
    W          0.00000000      10.00000000       4.00000000       0.00000000       0.00000000       0.00000000       0.00000000       0.00000000       0.00000000
    W          1.00000000      11.00000000       5.00000000       0.00000000       0.00000000       0.00000000       0.00000000       0.00000000       0.00000000
    W          0.00000000      10.00000000       6.00000000       0.00000000       0.00000000       0.00000000       0.00000000       0.00000000       0.00000000
    W          1.00000000      11.00000000       7.00000000       0.00000000       0.00000000       0.00000000       0.00000000       0.00000000       0.00000000
    W          0.00000000      10.00000000       8.00000000       0.00000000       0.00000000       0.00000000       0.00000000       0.00000000       0.00000000
    W          1.00000000      11.00000000       9.00000000       0.00000000       0.00000000       0.00000000       0.00000000       0.00000000       0.00000000
    W          0.00000000      10.00000000      10.00000000       0.00000000       0.00000000       0.00000000       0.00000000       0.00000000       0.00000000
    W          1.00000000      11.00000000      11.00000000       0.00000000       0.00000000       0.00000000       0.00000000       0.00000000       0.00000000
    W          2.00000000       0.00000000       0.00000000       0.00000000       0.00000000       0.00000000       0.00000000       0.00000000       0.00000000
    W          3.00000000       1.00000000       1.00000000       0.00000000       0.00000000       0.00000000       0.00000000       0.00000000       0.00000000
    W          2.00000000       0.00000000       2.00000000       0.00000000       0.00000000       0.00000000       0.00000000       0.00000000       0.00000000
    W          3.00000000       1.00000000       3.00000000       0.00000000       0.00000000       0.00000000       0.00000000       0.00000000       0.00000000
    W          2.00000000       0.00000000       4.00000000       0.00000000       0.00000000       0.00000000       0.00000000       0.00000000       0.00000000
    W          3.00000000       1.00000000       5.00000000       0.00000000       0.00000000       0.00000000       0.00000000       0.00000000       0.00000000
    W          2.00000000       0.00000000       6.00000000       0.00000000       0.00000000       0.00000000       0.00000000       0.00000000       0.00000000
    W          3.00000000       1.00000000       7.00000000       0.00000000       0.00000000       0.00000000       0.00000000       0.00000000       0.00000000
    W          2.00000000       0.00000000       8.00000000       0.00000000       0.00000000       0.00000000       0.00000000       0.00000000       0.00000000
    W          3.00000000       1.00000000       9.00000000       0.00000000       0.00000000       0.00000000       0.00000000       0.00000000       0.00000000
    W          2.00000000       0.00000000      10.00000000       0.00000000       0.00000000       0.00000000       0.00000000       0.00000000       0.00000000
    W          3.00000000       1.00000000      11.00000000       0.00000000       0.00000000       0.00000000       0.00000000       0.00000000       0.00000000
    W          2.00000000       2.00000000       0.00000000       0.00000000       0.00000000       0.00000000       0.00000000       0.00000000       0.00000000
    W          3.00000000       3.00000000       1.00000000       0.00000000       0.00000000       0.00000000       0.00000000       0.00000000       0.00000000
    W          2.00000000       2.00000000       2.00000000       0.00000000       0.00000000       0.00000000       0.00000000       0.00000000       0.00000000
    W          3.00000000       3.00000000       3.00000000       0.00000000       0.00000000       0.00000000       0.00000000       0.00000000       0.00000000
    W          2.00000000       2.00000000       4.00000000       0.00000000       0.00000000       0.00000000       0.00000000       0.00000000       0.00000000
    W          3.00000000       3.00000000       5.00000000       0.00000000       0.00000000       0.00000000       0.00000000       0.00000000       0.00000000
    W          2.00000000       2.00000000       6.00000000       0.00000000       0.00000000       0.00000000       0.00000000       0.00000000       0.00000000
    W          3.00000000       3.00000000       7.00000000       0.00000000       0.00000000       0.00000000       0.00000000       0.00000000       0.00000000
    W          2.00000000       2.00000000       8.00000000       0.00000000       0.00000000       0.00000000       0.00000000       0.00000000       0.00000000
    W          3.00000000       3.00000000       9.00000000       0.00000000       0.00000000       0.00000000       0.00000000       0.00000000       0.00000000
    W          2.00000000       2.00000000      10.00000000       0.00000000       0.00000000       0.00000000       0.00000000       0.00000000       0.00000000
    W          3.00000000       3.00000000      11.00000000       0.00000000       0.00000000       0.00000000       0.00000000       0.00000000       0.00000000
    W          2.00000000       4.00000000       0.00000000       0.00000000       0.00000000       0.00000000       0.00000000       0.00000000       0.00000000
    W          3.00000000       5.00000000       1.00000000       0.00000000       0.00000000       0.00000000       0.00000000       0.00000000       0.00000000
    W          2.00000000       4.00000000       2.00000000       0.00000000       0.00000000       0.00000000       0.00000000       0.00000000       0.00000000
    W          3.00000000       5.00000000       3.00000000       0.00000000       0.00000000       0.00000000       0.00000000       0.00000000       0.00000000
    W          2.00000000       4.00000000       4.00000000       0.00000000       0.00000000       0.00000000       0.00000000       0.00000000       0.00000000
    W          3.00000000       5.00000000       5.00000000       0.00000000       0.00000000       0.00000000       0.00000000       0.00000000       0.00000000
    W          2.00000000       4.00000000       6.00000000       0.00000000       0.00000000       0.00000000       0.00000000       0.00000000       0.00000000
    W          3.00000000       5.00000000       7.00000000       0.00000000       0.00000000       0.00000000       0.00000000       0.00000000       0.00000000
    W          2.00000000       4.00000000       8.00000000       0.00000000       0.00000000       0.00000000       0.00000000       0.00000000       0.00000000
    W          3.00000000       5.00000000       9.00000000       0.00000000       0.00000000       0.00000000       0.00000000       0.00000000       0.00000000
    W          2.00000000       4.00000000      10.00000000       0.00000000       0.00000000       0.00000000       0.00000000       0.00000000       0.00000000
    W          3.00000000       5.00000000      11.00000000       0.00000000       0.00000000       0.00000000       0.00000000       0.00000000       0.00000000
    W          2.00000000       6.00000000       0.00000000       0.00000000       0.00000000       0.00000000       0.00000000       0.00000000       0.00000000
    W          3.00000000       7.00000000       1.00000000       0.00000000       0.00000000       0.00000000       0.00000000       0.00000000       0.00000000
    W          2.00000000       6.00000000       2.00000000       0.00000000       0.00000000       0.00000000       0.00000000       0.00000000       0.00000000
    W          3.00000000       7.00000000       3.00000000       0.00000000       0.00000000       0.00000000       0.00000000       0.00000000       0.00000000
    W          2.00000000       6.00000000       4.00000000       0.00000000       0.00000000       0.00000000       0.00000000       0.00000000       0.00000000
    W          3.00000000       7.00000000       5.00000000       0.00000000       0.00000000       0.00000000       0.00000000       0.00000000       0.00000000
    W          2.00000000       6.00000000       6.00000000       0.00000000       0.00000000       0.00000000       0.00000000       0.00000000       0.00000000
    W          3.00000000       7.00000000       7.00000000       0.00000000       0.00000000       0.00000000       0.00000000       0.00000000       0.00000000
    W          2.00000000       6.00000000       8.00000000       0.00000000       0.00000000       0.00000000       0.00000000       0.00000000       0.00000000
    W          3.00000000       7.00000000       9.00000000       0.00000000       0.00000000       0.00000000       0.00000000       0.00000000       0.00000000
    W          2.00000000       6.00000000      10.00000000       0.00000000       0.00000000       0.00000000       0.00000000       0.00000000       0.00000000
    W          3.00000000       7.00000000      11.00000000       0.00000000       0.00000000       0.00000000       0.00000000       0.00000000       0.00000000
    W          2.00000000       8.00000000       0.00000000       0.00000000       0.00000000       0.00000000       0.00000000       0.00000000       0.00000000
    W          3.00000000       9.00000000       1.00000000       0.00000000       0.00000000       0.00000000       0.00000000       0.00000000       0.00000000
    W          2.00000000       8.00000000       2.00000000       0.00000000       0.00000000       0.00000000       0.00000000       0.00000000       0.00000000
    W          3.00000000       9.00000000       3.00000000       0.00000000       0.00000000       0.00000000       0.00000000       0.00000000       0.00000000
    W          2.00000000       8.00000000       4.00000000       0.00000000       0.00000000       0.00000000       0.00000000       0.00000000       0.00000000
    W          3.00000000       9.00000000       5.00000000       0.00000000       0.00000000       0.00000000       0.00000000       0.00000000       0.00000000
    W          2.00000000       8.00000000       6.00000000       0.00000000       0.00000000       0.00000000       0.00000000       0.00000000       0.00000000
    W          3.00000000       9.00000000       7.00000000       0.00000000       0.00000000       0.00000000       0.00000000       0.00000000       0.00000000
    W          2.00000000       8.00000000       8.00000000       0.00000000       0.00000000       0.00000000       0.00000000       0.00000000       0.00000000
    W          3.00000000       9.00000000       9.00000000       0.00000000       0.00000000       0.00000000       0.00000000       0.00000000       0.00000000
    W          2.00000000       8.00000000      10.00000000       0.00000000       0.00000000       0.00000000       0.00000000       0.00000000       0.00000000
    W          3.00000000       9.00000000      11.00000000       0.00000000       0.00000000       0.00000000       0.00000000       0.00000000       0.00000000
    W          2.00000000      10.00000000       0.00000000       0.00000000       0.00000000       0.00000000       0.00000000       0.00000000       0.00000000
    W          3.00000000      11.00000000       1.00000000       0.00000000       0.00000000       0.00000000       0.00000000       0.00000000       0.00000000
    W          2.00000000      10.00000000       2.00000000       0.00000000       0.00000000       0.00000000       0.00000000       0.00000000       0.00000000
    W          3.00000000      11.00000000       3.00000000       0.00000000       0.00000000       0.00000000       0.00000000       0.00000000       0.00000000
    W          2.00000000      10.00000000       4.00000000       0.00000000       0.00000000       0.00000000       0.00000000       0.00000000       0.00000000
    W          3.00000000      11.00000000       5.00000000       0.00000000       0.00000000       0.00000000       0.00000000       0.00000000       0.00000000
    W          2.00000000      10.00000000       6.00000000       0.00000000       0.00000000       0.00000000       0.00000000       0.00000000       0.00000000
    W          3.00000000      11.00000000       7.00000000       0.00000000       0.00000000       0.00000000       0.00000000       0.00000000       0.00000000
    W          2.00000000      10.00000000       8.00000000       0.00000000       0.00000000       0.00000000       0.00000000       0.00000000       0.00000000
    W          3.00000000      11.00000000       9.00000000       0.00000000       0.00000000       0.00000000       0.00000000       0.00000000       0.00000000
    W          2.00000000      10.00000000      10.00000000       0.00000000       0.00000000       0.00000000       0.00000000       0.00000000       0.00000000
    W          3.00000000      11.00000000      11.00000000       0.00000000       0.00000000       0.00000000       0.00000000       0.00000000       0.00000000
    W          4.00000000       0.00000000       0.00000000       0.00000000       0.00000000       0.00000000       0.00000000       0.00000000       0.00000000
    W          5.00000000       1.00000000       1.00000000       0.00000000       0.00000000       0.00000000       0.00000000       0.00000000       0.00000000
    W          4.00000000       0.00000000       2.00000000       0.00000000       0.00000000       0.00000000       0.00000000       0.00000000       0.00000000
    W          5.00000000       1.00000000       3.00000000       0.00000000       0.00000000       0.00000000       0.00000000       0.00000000       0.00000000
    W          4.00000000       0.00000000       4.00000000       0.00000000       0.00000000       0.00000000       0.00000000       0.00000000       0.00000000
    W          5.00000000       1.00000000       5.00000000       0.00000000       0.00000000       0.00000000       0.00000000       0.00000000       0.00000000
    W          4.00000000       0.00000000       6.00000000       0.00000000       0.00000000       0.00000000       0.00000000       0.00000000       0.00000000
    W          5.00000000       1.00000000       7.00000000       0.00000000       0.00000000       0.00000000       0.00000000       0.00000000       0.00000000
    W          4.00000000       0.00000000       8.00000000       0.00000000       0.00000000       0.00000000       0.00000000       0.00000000       0.00000000
    W          5.00000000       1.00000000       9.00000000       0.00000000       0.00000000       0.00000000       0.00000000       0.00000000       0.00000000
    W          4.00000000       0.00000000      10.00000000       0.00000000       0.00000000       0.00000000       0.00000000       0.00000000       0.00000000
    W          5.00000000       1.00000000      11.00000000       0.00000000       0.00000000       0.00000000       0.00000000       0.00000000       0.00000000
    W          4.00000000       2.00000000       0.00000000       0.00000000       0.00000000       0.00000000       0.00000000       0.00000000       0.00000000
    W          5.00000000       3.00000000       1.00000000       0.00000000       0.00000000       0.00000000       0.00000000       0.00000000       0.00000000
    W          4.00000000       2.00000000       2.00000000       0.00000000       0.00000000       0.00000000       0.00000000       0.00000000       0.00000000
    W          5.00000000       3.00000000       3.00000000       0.00000000       0.00000000       0.00000000       0.00000000       0.00000000       0.00000000
    W          4.00000000       2.00000000       4.00000000       0.00000000       0.00000000       0.00000000       0.00000000       0.00000000       0.00000000
    W          5.00000000       3.00000000       5.00000000       0.00000000       0.00000000       0.00000000       0.00000000       0.00000000       0.00000000
    W          4.00000000       2.00000000       6.00000000       0.00000000       0.00000000       0.00000000       0.00000000       0.00000000       0.00000000
    W          5.00000000       3.00000000       7.00000000       0.00000000       0.00000000       0.00000000       0.00000000       0.00000000       0.00000000
    W          4.00000000       2.00000000       8.00000000       0.00000000       0.00000000       0.00000000       0.00000000       0.00000000       0.00000000
    W          5.00000000       3.00000000       9.00000000       0.00000000       0.00000000       0.00000000       0.00000000       0.00000000       0.00000000
    W          4.00000000       2.00000000      10.00000000       0.00000000       0.00000000       0.00000000       0.00000000       0.00000000       0.00000000
    W          5.00000000       3.00000000      11.00000000       0.00000000       0.00000000       0.00000000       0.00000000       0.00000000       0.00000000
    W          4.00000000       4.00000000       0.00000000       0.00000000       0.00000000       0.00000000       0.00000000       0.00000000       0.00000000
    W          5.00000000       5.00000000       1.00000000       0.00000000       0.00000000       0.00000000       0.00000000       0.00000000       0.00000000
    W          4.00000000       4.00000000       2.00000000       0.00000000       0.00000000       0.00000000       0.00000000       0.00000000       0.00000000
    W          5.00000000       5.00000000       3.00000000       0.00000000       0.00000000       0.00000000       0.00000000       0.00000000       0.00000000
    W          4.00000000       4.00000000       4.00000000       0.00000000       0.00000000       0.00000000       0.00000000       0.00000000       0.00000000
    W          5.00000000       5.00000000       5.00000000       0.00000000       0.00000000       0.00000000       0.00000000       0.00000000       0.00000000
    W          4.00000000       4.00000000       6.00000000       0.00000000       0.00000000       0.00000000       0.00000000       0.00000000       0.00000000
    W          5.00000000       5.00000000       7.00000000       0.00000000       0.00000000       0.00000000       0.00000000       0.00000000       0.00000000
    W          4.00000000       4.00000000       8.00000000       0.00000000       0.00000000       0.00000000       0.00000000       0.00000000       0.00000000
    W          5.00000000       5.00000000       9.00000000       0.00000000       0.00000000       0.00000000       0.00000000       0.00000000       0.00000000
    W          4.00000000       4.00000000      10.00000000       0.00000000       0.00000000       0.00000000       0.00000000       0.00000000       0.00000000
    W          5.00000000       5.00000000      11.00000000       0.00000000       0.00000000       0.00000000       0.00000000       0.00000000       0.00000000
    W          4.00000000       6.00000000       0.00000000       0.00000000       0.00000000       0.00000000       0.00000000       0.00000000       0.00000000
    W          5.00000000       7.00000000       1.00000000       0.00000000       0.00000000       0.00000000       0.00000000       0.00000000       0.00000000
    W          4.00000000       6.00000000       2.00000000       0.00000000       0.00000000       0.00000000       0.00000000       0.00000000       0.00000000