240
   time=   0.000000 (fs)  Energy=  0.000000 (eV)
BOX         8.03524000       0.91979200       0.09756600       0.00000000      18.25603599       0.35732600       0.00000000       0.00000000      20.42384999
   Ca          2.49803109       6.94084783       5.14971039       0.00000000       0.00000000       0.00000000       0.00000000       0.00000000       0.00000000
   Ca          2.02826791       2.36583317       5.06221461       0.00000000       0.00000000       0.00000000       0.00000000       0.00000000       0.00000000
   Ca          3.50333659       8.52359565       2.09050359       0.00000000       0.00000000       0.00000000       0.00000000       0.00000000       0.00000000
   Ca          1.02296241       0.78308535       8.12142141       0.00000000       0.00000000       0.00000000       0.00000000       0.00000000       0.00000000
   Ca          3.25640359       3.90526453       2.01686540       0.00000000       0.00000000       0.00000000       0.00000000       0.00000000       0.00000000
   Ca          1.26989541       5.40141647       8.19505960       0.00000000       0.00000000       0.00000000       0.00000000       0.00000000       0.00000000
   Si          0.58482646       6.67094725       4.03196413       0.00000000       0.00000000       0.00000000       0.00000000       0.00000000       0.00000000
   Si          3.94147254       2.63573375       6.17996086       0.00000000       0.00000000       0.00000000       0.00000000       0.00000000       0.00000000
   Si          1.53308331       8.73986804       1.87985200       0.00000000       0.00000000       0.00000000       0.00000000       0.00000000       0.00000000
   Si          2.99321569       0.56681296       8.33207300       0.00000000       0.00000000       0.00000000       0.00000000       0.00000000       0.00000000
   Si          1.27420646       3.56944985       1.88724543       0.00000000       0.00000000       0.00000000       0.00000000       0.00000000       0.00000000
   Si          3.25209254       5.73723114       8.32467956       0.00000000       0.00000000       0.00000000       0.00000000       0.00000000       0.00000000
    O          0.62319890       4.71795837       2.76184575       0.00000000       0.00000000       0.00000000       0.00000000       0.00000000       0.00000000
    O          3.90310011       4.58872263       7.45007925       0.00000000       0.00000000       0.00000000       0.00000000       0.00000000       0.00000000
    O          0.79031195       7.99449502       2.74295369       0.00000000       0.00000000       0.00000000       0.00000000       0.00000000       0.00000000
    O          3.73598706       1.31218598       7.46897131       0.00000000       0.00000000       0.00000000       0.00000000       0.00000000       0.00000000
    O          1.01243390       1.67837404       2.26046066       0.00000000       0.00000000       0.00000000       0.00000000       0.00000000       0.00000000
    O          3.51386510       7.62830695       7.95146434       0.00000000       0.00000000       0.00000000       0.00000000       0.00000000       0.00000000
    O          3.69279217       6.69382083       4.07728466       0.00000000       0.00000000       0.00000000       0.00000000       0.00000000       0.00000000
    O          0.83350683       2.61286016       6.13464034       0.00000000       0.00000000       0.00000000       0.00000000       0.00000000       0.00000000
    O          1.50405126       8.09929555      10.00350982       0.00000000       0.00000000       0.00000000       0.00000000       0.00000000       0.00000000
    O          3.02224774       1.20738545       0.20841518       0.00000000       0.00000000       0.00000000       0.00000000       0.00000000       0.00000000
    O          1.29236620       3.57017291      10.02745678       0.00000000       0.00000000       0.00000000       0.00000000       0.00000000       0.00000000
    O          3.23393280       5.73650809       0.18446821       0.00000000       0.00000000       0.00000000       0.00000000       0.00000000       0.00000000
    O          2.42714511       5.02014267       7.11005278       0.00000000       0.00000000       0.00000000       0.00000000       0.00000000       0.00000000
    O          2.09915389       4.28653833       3.10187222       0.00000000       0.00000000       0.00000000       0.00000000       0.00000000       0.00000000
    O          2.20961534       0.70766985       7.13744116       0.00000000       0.00000000       0.00000000       0.00000000       0.00000000       0.00000000
    O          2.31668366       8.59901114       3.07448383       0.00000000       0.00000000       0.00000000       0.00000000       0.00000000       0.00000000
    O          3.33487191       2.18789655       4.40198302       0.00000000       0.00000000       0.00000000       0.00000000       0.00000000       0.00000000
    O          1.19142709       7.11878444       5.80994197       0.00000000       0.00000000       0.00000000       0.00000000       0.00000000       0.00000000
   Ca          2.54681409       7.11951083      15.36163538       0.00000000       0.00000000       0.00000000       0.00000000       0.00000000       0.00000000
   Ca          2.07705092       2.54449617      15.27413961       0.00000000       0.00000000       0.00000000       0.00000000       0.00000000       0.00000000
   Ca          3.55211959       8.70225865      12.30242859       0.00000000       0.00000000       0.00000000       0.00000000       0.00000000       0.00000000
   Ca          1.07174541       0.96174835      18.33334640       0.00000000       0.00000000       0.00000000       0.00000000       0.00000000       0.00000000
   Ca          3.30518659       4.08392753      12.22879040       0.00000000       0.00000000       0.00000000       0.00000000       0.00000000       0.00000000
   Ca          1.31867841       5.58007947      18.40698459       0.00000000       0.00000000       0.00000000       0.00000000       0.00000000       0.00000000
   Si          0.63360946       6.84961025      14.24388913       0.00000000       0.00000000       0.00000000       0.00000000       0.00000000       0.00000000
   Si          3.99025554       2.81439675      16.39188586       0.00000000       0.00000000       0.00000000       0.00000000       0.00000000       0.00000000
   Si          1.58186632       8.91853104      12.09177700       0.00000000       0.00000000       0.00000000       0.00000000       0.00000000       0.00000000
   Si          3.04199869       0.74547596      18.54399799       0.00000000       0.00000000       0.00000000       0.00000000       0.00000000       0.00000000
   Si          1.32298946       3.74811285      12.09917043       0.00000000       0.00000000       0.00000000       0.00000000       0.00000000       0.00000000
   Si          3.30087554       5.91589415      18.53660456       0.00000000       0.00000000       0.00000000       0.00000000       0.00000000       0.00000000
    O          0.67198190       4.89662137      12.97377075       0.00000000       0.00000000       0.00000000       0.00000000       0.00000000       0.00000000
    O          3.95188311       4.76738563      17.66200424       0.00000000       0.00000000       0.00000000       0.00000000       0.00000000       0.00000000
    O          0.83909495       8.17315802      12.95487869       0.00000000       0.00000000       0.00000000       0.00000000       0.00000000       0.00000000
    O          3.78477006       1.49084898      17.68089630       0.00000000       0.00000000       0.00000000       0.00000000       0.00000000       0.00000000
    O          1.06121690       1.85703704      12.47238565       0.00000000       0.00000000       0.00000000       0.00000000       0.00000000       0.00000000
    O          3.56264810       7.80696995      18.16338934       0.00000000       0.00000000       0.00000000       0.00000000       0.00000000       0.00000000
    O          3.74157517       6.87248383      14.28920965       0.00000000       0.00000000       0.00000000       0.00000000       0.00000000       0.00000000
    O          0.88228983       2.79152316      16.34656534       0.00000000       0.00000000       0.00000000       0.00000000       0.00000000       0.00000000
    O          1.55283426       8.27795855      20.21543482       0.00000000       0.00000000       0.00000000       0.00000000       0.00000000       0.00000000
    O          3.07103074       1.38604845      10.42034017       0.00000000       0.00000000       0.00000000       0.00000000       0.00000000       0.00000000
    O          1.34114920       3.74883591      20.23938178       0.00000000       0.00000000       0.00000000       0.00000000       0.00000000       0.00000000
    O          3.28271580       5.91517109      10.39639321       0.00000000       0.00000000       0.00000000       0.00000000       0.00000000       0.00000000
    O          2.47592811       5.19880567      17.32197778       0.00000000       0.00000000       0.00000000       0.00000000       0.00000000       0.00000000
    O          2.14793689       4.46520133      13.31379721       0.00000000       0.00000000       0.00000000       0.00000000       0.00000000       0.00000000
    O          2.25839834       0.88633285      17.34936616       0.00000000       0.00000000       0.00000000       0.00000000       0.00000000       0.00000000
    O          2.36546666       8.77767414      13.28640883       0.00000000       0.00000000       0.00000000       0.00000000       0.00000000       0.00000000
    O          3.38365491       2.36655956      14.61390802       0.00000000       0.00000000       0.00000000       0.00000000       0.00000000       0.00000000
    O          1.24021009       7.29744744      16.02186697       0.00000000       0.00000000       0.00000000       0.00000000       0.00000000       0.00000000
   Ca          2.95792709      16.06886583       5.14971039       0.00000000       0.00000000       0.00000000       0.00000000       0.00000000       0.00000000
   Ca          2.48816391      11.49385116       5.06221461       0.00000000       0.00000000       0.00000000       0.00000000       0.00000000       0.00000000
   Ca          3.96323259      17.65161364       2.09050359       0.00000000       0.00000000       0.00000000       0.00000000       0.00000000       0.00000000
   Ca          1.48285841       9.91110334       8.12142141       0.00000000       0.00000000       0.00000000       0.00000000       0.00000000       0.00000000
   Ca          3.71629959      13.03328252       2.01686540       0.00000000       0.00000000       0.00000000       0.00000000       0.00000000       0.00000000
   Ca          1.72979141      14.52943447       8.19505960       0.00000000       0.00000000       0.00000000       0.00000000       0.00000000       0.00000000
   Si          1.04472246      15.79896525       4.03196413       0.00000000       0.00000000       0.00000000       0.00000000       0.00000000       0.00000000
   Si          4.40136854      11.76375174       6.17996086       0.00000000       0.00000000       0.00000000       0.00000000       0.00000000       0.00000000
   Si          1.99297931      17.86788603       1.87985200       0.00000000       0.00000000       0.00000000       0.00000000       0.00000000       0.00000000
   Si          3.45311169       9.69483096       8.33207300       0.00000000       0.00000000       0.00000000       0.00000000       0.00000000       0.00000000
   Si          1.73410246      12.69746785       1.88724543       0.00000000       0.00000000       0.00000000       0.00000000       0.00000000       0.00000000
   Si          3.71198854      14.86524914       8.32467956       0.00000000       0.00000000       0.00000000       0.00000000       0.00000000       0.00000000
    O          1.08309490      13.84597636       2.76184575       0.00000000       0.00000000       0.00000000       0.00000000       0.00000000       0.00000000
    O          4.36299611      13.71674063       7.45007925       0.00000000       0.00000000       0.00000000       0.00000000       0.00000000       0.00000000
    O          1.25020795      17.12251302       2.74295369       0.00000000       0.00000000       0.00000000       0.00000000       0.00000000       0.00000000
    O          4.19588306      10.44020397       7.46897131       0.00000000       0.00000000       0.00000000       0.00000000       0.00000000       0.00000000
    O          1.47232990      10.80639204       2.26046066       0.00000000       0.00000000       0.00000000       0.00000000       0.00000000       0.00000000
    O          3.97376110      16.75632495       7.95146434       0.00000000       0.00000000       0.00000000       0.00000000       0.00000000       0.00000000
    O          4.15268817      15.82183883       4.07728466       0.00000000       0.00000000       0.00000000       0.00000000       0.00000000       0.00000000
    O          1.29340283      11.74087816       6.13464034       0.00000000       0.00000000       0.00000000       0.00000000       0.00000000       0.00000000
    O          1.96394726      17.22731354      10.00350982       0.00000000       0.00000000       0.00000000       0.00000000       0.00000000       0.00000000
    O          3.48214374      10.33540345       0.20841518       0.00000000       0.00000000       0.00000000       0.00000000       0.00000000       0.00000000
    O          1.75226220      12.69819091      10.02745678       0.00000000       0.00000000       0.00000000       0.00000000       0.00000000       0.00000000
    O          3.69382880      14.86452608       0.18446821       0.00000000       0.00000000       0.00000000       0.00000000       0.00000000       0.00000000
    O          2.88704111      14.14816067       7.11005278       0.00000000       0.00000000       0.00000000       0.00000000       0.00000000       0.00000000
    O          2.55904989      13.41455632       3.10187222       0.00000000       0.00000000       0.00000000       0.00000000       0.00000000       0.00000000
    O          2.66951134       9.83568785       7.13744116       0.00000000       0.00000000       0.00000000       0.00000000       0.00000000       0.00000000
    O          2.77657966      17.72702914       3.07448383       0.00000000       0.00000000       0.00000000       0.00000000       0.00000000       0.00000000
    O          3.79476791      11.31591455       4.40198302       0.00000000       0.00000000       0.00000000       0.00000000       0.00000000       0.00000000
    O          1.65132309      16.24680244       5.80994197       0.00000000       0.00000000       0.00000000       0.00000000       0.00000000       0.00000000
   Ca          3.00671009      16.24752883      15.36163538       0.00000000       0.00000000       0.00000000       0.00000000       0.00000000       0.00000000
   Ca          2.53694692      11.67251416      15.27413961       0.00000000       0.00000000       0.00000000       0.00000000       0.00000000       0.00000000
   Ca          4.01201559      17.83027665      12.30242859       0.00000000       0.00000000       0.00000000       0.00000000       0.00000000       0.00000000
   Ca          1.53164141      10.08976635      18.33334640       0.00000000       0.00000000       0.00000000       0.00000000       0.00000000       0.00000000
   Ca          3.76508259      13.21194552      12.22879040       0.00000000       0.00000000       0.00000000       0.00000000       0.00000000       0.00000000
   Ca          1.77857441      14.70809747      18.40698459       0.00000000       0.00000000       0.00000000       0.00000000       0.00000000       0.00000000
   Si          1.09350546      15.97762825      14.24388913       0.00000000       0.00000000       0.00000000       0.00000000       0.00000000       0.00000000
   Si          4.45015154      11.94241474      16.39188586       0.00000000       0.00000000       0.00000000       0.00000000       0.00000000       0.00000000
   Si          2.04176232      18.04654903      12.09177700       0.00000000       0.00000000       0.00000000       0.00000000       0.00000000       0.00000000
   Si          3.50189469       9.87349396      18.54399799       0.00000000       0.00000000       0.00000000       0.00000000       0.00000000       0.00000000
   Si          1.78288546      12.87613085      12.09917043       0.00000000       0.00000000       0.00000000       0.00000000       0.00000000       0.00000000
   Si          3.76077154      15.04391214      18.53660456       0.00000000       0.00000000       0.00000000       0.00000000       0.00000000       0.00000000
    O          1.13187790      14.02463936      12.97377075       0.00000000       0.00000000       0.00000000       0.00000000       0.00000000       0.00000000
    O          4.41177911      13.89540363      17.66200424       0.00000000       0.00000000       0.00000000       0.00000000       0.00000000       0.00000000
    O          1.29899095      17.30117602      12.95487869       0.00000000       0.00000000       0.00000000       0.00000000       0.00000000       0.00000000
    O          4.24466606      10.61886697      17.68089630       0.00000000       0.00000000       0.00000000       0.00000000       0.00000000       0.00000000
    O          1.52111290      10.98505504      12.47238565       0.00000000       0.00000000       0.00000000       0.00000000       0.00000000       0.00000000
    O          4.02254410      16.93498795      18.16338934       0.00000000       0.00000000       0.00000000       0.00000000       0.00000000       0.00000000
    O          4.20147117      16.00050183      14.28920965       0.00000000       0.00000000       0.00000000       0.00000000       0.00000000       0.00000000
    O          1.34218583      11.91954116      16.34656534       0.00000000       0.00000000       0.00000000       0.00000000       0.00000000       0.00000000
    O          2.01273026      17.40597654      20.21543482       0.00000000       0.00000000       0.00000000       0.00000000       0.00000000       0.00000000
    O          3.53092674      10.51406645      10.42034017       0.00000000       0.00000000       0.00000000       0.00000000       0.00000000       0.00000000
    O          1.80104520      12.87685391      20.23938178       0.00000000       0.00000000       0.00000000       0.00000000       0.00000000       0.00000000
    O          3.74261180      15.04318908      10.39639321       0.00000000       0.00000000       0.00000000       0.00000000       0.00000000       0.00000000
    O          2.93582411      14.32682367      17.32197778       0.00000000       0.00000000       0.00000000       0.00000000       0.00000000       0.00000000
    O          2.60783289      13.59321932      13.31379721       0.00000000       0.00000000       0.00000000       0.00000000       0.00000000       0.00000000
    O          2.71829434      10.01435085      17.34936616       0.00000000       0.00000000       0.00000000       0.00000000       0.00000000       0.00000000
    O          2.82536266      17.90569214      13.28640883       0.00000000       0.00000000       0.00000000       0.00000000       0.00000000       0.00000000
    O          3.84355091      11.49457755      14.61390802       0.00000000       0.00000000       0.00000000       0.00000000       0.00000000       0.00000000
    O          1.70010609      16.42546544      16.02186697       0.00000000       0.00000000       0.00000000       0.00000000       0.00000000       0.00000000
   Ca          6.51565109       6.94084783       5.14971039       0.00000000       0.00000000       0.00000000       0.00000000       0.00000000       0.00000000
   Ca          6.04588791       2.36583317       5.06221461       0.00000000       0.00000000       0.00000000       0.00000000       0.00000000       0.00000000
   Ca          7.52095659       8.52359565       2.09050359       0.00000000       0.00000000       0.00000000       0.00000000       0.00000000       0.00000000
   Ca          5.04058241       0.78308535       8.12142141       0.00000000       0.00000000       0.00000000       0.00000000       0.00000000       0.00000000
   Ca          7.27402359       3.90526453       2.01686540       0.00000000       0.00000000       0.00000000       0.00000000       0.00000000       0.00000000
   Ca          5.28751541       5.40141647       8.19505960       0.00000000       0.00000000       0.00000000       0.00000000       0.00000000       0.00000000
   Si          4.60244646       6.67094725       4.03196413       0.00000000       0.00000000       0.00000000       0.00000000       0.00000000       0.00000000
   Si          7.95909254       2.63573375       6.17996086       0.00000000       0.00000000       0.00000000       0.00000000       0.00000000       0.00000000
   Si          5.55070331       8.73986804       1.87985200       0.00000000       0.00000000       0.00000000       0.00000000       0.00000000       0.00000000
   Si          7.01083569       0.56681296       8.33207300       0.00000000       0.00000000       0.00000000       0.00000000       0.00000000       0.00000000
   Si          5.29182646       3.56944985       1.88724543       0.00000000       0.00000000       0.00000000       0.00000000       0.00000000       0.00000000
   Si          7.26971254       5.73723114       8.32467956       0.00000000       0.00000000       0.00000000       0.00000000       0.00000000       0.00000000
    O          4.64081890       4.71795837       2.76184575       0.00000000       0.00000000       0.00000000       0.00000000       0.00000000       0.00000000
    O          7.92072011       4.58872263       7.45007925       0.00000000       0.00000000       0.00000000       0.00000000       0.00000000       0.00000000
    O          4.80793195       7.99449502       2.74295369       0.00000000       0.00000000       0.00000000       0.00000000       0.00000000       0.00000000
    O          7.75360706       1.31218598       7.46897131       0.00000000       0.00000000       0.00000000       0.00000000       0.00000000       0.00000000
    O          5.03005390       1.67837404       2.26046066       0.00000000       0.00000000       0.00000000       0.00000000       0.00000000       0.00000000
    O          7.53148510       7.62830695       7.95146434       0.00000000       0.00000000       0.00000000       0.00000000       0.00000000       0.00000000
    O          7.71041217       6.69382083       4.07728466       0.00000000       0.00000000       0.00000000       0.00000000       0.00000000       0.00000000
    O          4.85112683       2.61286016       6.13464034       0.00000000       0.00000000       0.00000000       0.00000000       0.00000000       0.00000000
    O          5.52167126       8.09929555      10.00350982       0.00000000       0.00000000       0.00000000       0.00000000       0.00000000       0.00000000
    O          7.03986774       1.20738545       0.20841518       0.00000000       0.00000000       0.00000000       0.00000000       0.00000000       0.00000000
    O          5.30998620       3.57017291      10.02745678       0.00000000       0.00000000       0.00000000       0.00000000       0.00000000       0.00000000
    O          7.25155280       5.73650809       0.18446821       0.00000000       0.00000000       0.00000000       0.00000000       0.00000000       0.00000000
    O          6.44476511       5.02014267       7.11005278       0.00000000       0.00000000       0.00000000       0.00000000       0.00000000       0.00000000
    O          6.11677389       4.28653833       3.10187222       0.00000000       0.00000000       0.00000000       0.00000000       0.00000000       0.00000000
    O          6.22723534       0.70766985       7.13744116       0.00000000       0.00000000       0.00000000       0.00000000       0.00000000       0.00000000
    O          6.33430366       8.59901114       3.07448383       0.00000000       0.00000000       0.00000000       0.00000000       0.00000000       0.00000000
    O          7.35249191       2.18789655       4.40198302       0.00000000       0.00000000       0.00000000       0.00000000       0.00000000       0.00000000
    O          5.20904709       7.11878444       5.80994197       0.00000000       0.00000000       0.00000000       0.00000000       0.00000000       0.00000000
   Ca          6.56443409       7.11951083      15.36163538       0.00000000       0.00000000       0.00000000       0.00000000       0.00000000       0.00000000
   Ca          6.09467092       2.54449617      15.27413961       0.00000000       0.00000000       0.00000000       0.00000000       0.00000000       0.00000000
   Ca          7.56973959       8.70225865      12.30242859       0.00000000       0.00000000       0.00000000       0.00000000       0.00000000       0.00000000
   Ca          5.08936541       0.96174835      18.33334640       0.00000000       0.00000000       0.00000000       0.00000000       0.00000000       0.00000000
   Ca          7.32280659       4.08392753      12.22879040       0.00000000       0.00000000       0.00000000       0.00000000       0.00000000       0.00000000
   Ca          5.33629841       5.58007947      18.40698459       0.00000000       0.00000000       0.00000000       0.00000000       0.00000000       0.00000000
   Si          4.65122946       6.84961025      14.24388913       0.00000000       0.00000000       0.00000000       0.00000000       0.00000000       0.00000000
   Si          8.00787554       2.81439675      16.39188586       0.00000000       0.00000000       0.00000000       0.00000000       0.00000000       0.00000000
   Si          5.59948632       8.91853104      12.09177700       0.00000000       0.00000000       0.00000000       0.00000000       0.00000000       0.00000000
   Si          7.05961869       0.74547596      18.54399799       0.00000000       0.00000000       0.00000000       0.00000000       0.00000000       0.00000000
   Si          5.34060946       3.74811285      12.09917043       0.00000000       0.00000000       0.00000000       0.00000000       0.00000000       0.00000000
   Si          7.31849554       5.91589415      18.53660456       0.00000000       0.00000000       0.00000000       0.00000000       0.00000000       0.00000000
    O          4.68960190       4.89662137      12.97377075       0.00000000       0.00000000       0.00000000       0.00000000       0.00000000       0.00000000
    O          7.96950311       4.76738563      17.66200424       0.00000000       0.00000000       0.00000000       0.00000000       0.00000000       0.00000000
    O          4.85671495       8.17315802      12.95487869       0.00000000       0.00000000       0.00000000       0.00000000       0.00000000       0.00000000
    O          7.80239006       1.49084898      17.68089630       0.00000000       0.00000000       0.00000000       0.00000000       0.00000000       0.00000000
    O          5.07883690       1.85703704      12.47238565       0.00000000       0.00000000       0.00000000       0.00000000       0.00000000       0.00000000
    O          7.58026810       7.80696995      18.16338934       0.00000000       0.00000000       0.00000000       0.00000000       0.00000000       0.00000000
    O          7.75919517       6.87248383      14.28920965       0.00000000       0.00000000       0.00000000       0.00000000       0.00000000       0.00000000
    O          4.89990983       2.79152316      16.34656534       0.00000000       0.00000000       0.00000000       0.00000000       0.00000000       0.00000000
    O          5.57045426       8.27795855      20.21543482       0.00000000       0.00000000       0.00000000       0.00000000       0.00000000       0.00000000
    O          7.08865074       1.38604845      10.42034017       0.00000000       0.00000000       0.00000000       0.00000000       0.00000000       0.00000000
    O          5.35876920       3.74883591      20.23938178       0.00000000       0.00000000       0.00000000       0.00000000       0.00000000       0.00000000
    O          7.30033580       5.91517109      10.39639321       0.00000000       0.00000000       0.00000000       0.00000000       0.00000000       0.00000000
    O          6.49354811       5.19880567      17.32197778       0.00000000       0.00000000       0.00000000       0.00000000       0.00000000       0.00000000
    O          6.16555689       4.46520133      13.31379721       0.00000000       0.00000000       0.00000000       0.00000000       0.00000000       0.00000000
    O          6.27601834       0.88633285      17.34936616       0.00000000       0.00000000       0.00000000       0.00000000       0.00000000       0.00000000
    O          6.38308666       8.77767414      13.28640883       0.00000000       0.00000000       0.00000000       0.00000000       0.00000000       0.00000000
    O          7.40127491       2.36655956      14.61390802       0.00000000       0.00000000       0.00000000       0.00000000       0.00000000       0.00000000
    O          5.25783009       7.29744744      16.02186697       0.00000000       0.00000000       0.00000000       0.00000000       0.00000000       0.00000000
   Ca          6.97554709      16.06886583       5.14971039       0.00000000       0.00000000       0.00000000       0.00000000       0.00000000       0.00000000
   Ca          6.50578391      11.49385116       5.06221461       0.00000000       0.00000000       0.00000000       0.00000000       0.00000000       0.00000000
   Ca          7.98085259      17.65161364       2.09050359       0.00000000       0.00000000       0.00000000       0.00000000       0.00000000       0.00000000