240
   time=   0.000000 (fs)  Energy=  0.000000 (eV)
BOX        14.30215800      -0.02077600      -1.54384800       0.00000000      14.78555400      -3.73592200       0.00000000       0.00000000      15.53214199
   Ca          3.39110437       4.60643676       3.91630535       0.00000000       0.00000000       0.00000000       0.00000000       0.00000000       0.00000000
   Ca          2.97766263       0.91837924       3.84976565       0.00000000       0.00000000       0.00000000       0.00000000       0.00000000       0.00000000
   Ca          5.28913613       6.49123999       1.58980793       0.00000000       0.00000000       0.00000000       0.00000000       0.00000000       0.00000000
   Ca          1.07963087      -0.96642399       6.17626307       0.00000000       0.00000000       0.00000000       0.00000000       0.00000000       0.00000000
   Ca          5.27510683       2.76536932       1.53380679       0.00000000       0.00000000       0.00000000       0.00000000       0.00000000       0.00000000
   Ca          1.09366017       2.75944668       6.23226421       0.00000000       0.00000000       0.00000000       0.00000000       0.00000000       0.00000000
   Si          0.10246596       4.60814013       3.06627005       0.00000000       0.00000000       0.00000000       0.00000000       0.00000000       0.00000000
   Si          6.26630104       0.91667588       4.69980095       0.00000000       0.00000000       0.00000000       0.00000000       0.00000000       0.00000000
   Si          1.77996356       6.70791604       1.42960941       0.00000000       0.00000000       0.00000000       0.00000000       0.00000000       0.00000000
   Si          4.58880344      -1.18310003       6.33646158       0.00000000       0.00000000       0.00000000       0.00000000       0.00000000       0.00000000
   Si          1.78812792       2.51893989       1.43523205       0.00000000       0.00000000       0.00000000       0.00000000       0.00000000       0.00000000
   Si          4.58063908       3.00587612       6.33083895       0.00000000       0.00000000       0.00000000       0.00000000       0.00000000       0.00000000
    O          0.45291922       3.27674206       2.10035720       0.00000000       0.00000000       0.00000000       0.00000000       0.00000000       0.00000000
    O          5.91584778       2.24807394       5.66571380       0.00000000       0.00000000       0.00000000       0.00000000       0.00000000       0.00000000
    O          0.45436526       5.93413080       2.08598997       0.00000000       0.00000000       0.00000000       0.00000000       0.00000000       0.00000000
    O          5.91440174      -0.40931480       5.68008103       0.00000000       0.00000000       0.00000000       0.00000000       0.00000000       0.00000000
    O          1.46313940       0.91380189       1.71905865       0.00000000       0.00000000       0.00000000       0.00000000       0.00000000       0.00000000
    O          4.90562760       4.61101411       6.04701235       0.00000000       0.00000000       0.00000000       0.00000000       0.00000000       0.00000000
    O          5.62860832       4.61773324       3.10073587       0.00000000       0.00000000       0.00000000       0.00000000       0.00000000       0.00000000
    O          0.74015868       0.90708276       4.66533513       0.00000000       0.00000000       0.00000000       0.00000000       0.00000000       0.00000000
    O          1.11622522       4.58803154       7.60757325       0.00000000       0.00000000       0.00000000       0.00000000       0.00000000       0.00000000
    O          5.25254178       0.93678447       0.15849774       0.00000000       0.00000000       0.00000000       0.00000000       0.00000000       0.00000000
    O          1.14878199       0.91517779       7.62578469       0.00000000       0.00000000       0.00000000       0.00000000       0.00000000       0.00000000
    O          5.21998501       4.60963821       0.14028631       0.00000000       0.00000000       0.00000000       0.00000000       0.00000000       0.00000000
    O          3.27762627       2.66449635       5.40712693       0.00000000       0.00000000       0.00000000       0.00000000       0.00000000       0.00000000
    O          3.09114073       2.86031965       2.35894407       0.00000000       0.00000000       0.00000000       0.00000000       0.00000000       0.00000000
    O          3.27982066      -0.83357108       5.42795553       0.00000000       0.00000000       0.00000000       0.00000000       0.00000000       0.00000000
    O          3.08894634       6.35838709       2.33811546       0.00000000       0.00000000       0.00000000       0.00000000       0.00000000       0.00000000
    O          5.37395669       0.90439299       3.34766586       0.00000000       0.00000000       0.00000000       0.00000000       0.00000000       0.00000000
    O          0.99481031       4.62042301       4.41840513       0.00000000       0.00000000       0.00000000       0.00000000       0.00000000       0.00000000
   Ca          2.61918037       2.73847576      11.68237634       0.00000000       0.00000000       0.00000000       0.00000000       0.00000000       0.00000000
   Ca          2.20573863      -0.94958176      11.61583665       0.00000000       0.00000000       0.00000000       0.00000000       0.00000000       0.00000000
   Ca          4.51721213       4.62327899       9.35587892       0.00000000       0.00000000       0.00000000       0.00000000       0.00000000       0.00000000
   Ca          0.30770687      -2.83438499      13.94233407       0.00000000       0.00000000       0.00000000       0.00000000       0.00000000       0.00000000
   Ca          4.50318283       0.89740832       9.29987779       0.00000000       0.00000000       0.00000000       0.00000000       0.00000000       0.00000000
   Ca          0.32173617       0.89148568      13.99833521       0.00000000       0.00000000       0.00000000       0.00000000       0.00000000       0.00000000
   Si         -0.66945804       2.74017913      10.83234104       0.00000000       0.00000000       0.00000000       0.00000000       0.00000000       0.00000000
   Si          5.49437704      -0.95128512      12.46587195       0.00000000       0.00000000       0.00000000       0.00000000       0.00000000       0.00000000
   Si          1.00803956       4.83995504       9.19568041       0.00000000       0.00000000       0.00000000       0.00000000       0.00000000       0.00000000
   Si          3.81687944      -3.05106103      14.10253258       0.00000000       0.00000000       0.00000000       0.00000000       0.00000000       0.00000000
   Si          1.01620393       0.65097889       9.20130305       0.00000000       0.00000000       0.00000000       0.00000000       0.00000000       0.00000000
   Si          3.80871508       1.13791512      14.09690995       0.00000000       0.00000000       0.00000000       0.00000000       0.00000000       0.00000000
    O         -0.31900478       1.40878106       9.86642820       0.00000000       0.00000000       0.00000000       0.00000000       0.00000000       0.00000000
    O          5.14392378       0.38011294      13.43178479       0.00000000       0.00000000       0.00000000       0.00000000       0.00000000       0.00000000
    O         -0.31755874       4.06616980       9.85206097       0.00000000       0.00000000       0.00000000       0.00000000       0.00000000       0.00000000
    O          5.14247774      -2.27727580      13.44615203       0.00000000       0.00000000       0.00000000       0.00000000       0.00000000       0.00000000
    O          0.69121540      -0.95415911       9.48512964       0.00000000       0.00000000       0.00000000       0.00000000       0.00000000       0.00000000
    O          4.13370360       2.74305311      13.81308335       0.00000000       0.00000000       0.00000000       0.00000000       0.00000000       0.00000000
    O          4.85668432       2.74977224      10.86680687       0.00000000       0.00000000       0.00000000       0.00000000       0.00000000       0.00000000
    O         -0.03176532      -0.96087824      12.43140613       0.00000000       0.00000000       0.00000000       0.00000000       0.00000000       0.00000000
    O          0.34430122       2.72007054      15.37364425       0.00000000       0.00000000       0.00000000       0.00000000       0.00000000       0.00000000
    O          4.48061778      -0.93117653       7.92456874       0.00000000       0.00000000       0.00000000       0.00000000       0.00000000       0.00000000
    O          0.37685799      -0.95278321      15.39185569       0.00000000       0.00000000       0.00000000       0.00000000       0.00000000       0.00000000
    O          4.44806101       2.74167721       7.90635730       0.00000000       0.00000000       0.00000000       0.00000000       0.00000000       0.00000000
    O          2.50570227       0.79653535      13.17319793       0.00000000       0.00000000       0.00000000       0.00000000       0.00000000       0.00000000
    O          2.31921673       0.99235865      10.12501506       0.00000000       0.00000000       0.00000000       0.00000000       0.00000000       0.00000000
    O          2.50789666      -2.70153208      13.19402653       0.00000000       0.00000000       0.00000000       0.00000000       0.00000000       0.00000000
    O          2.31702234       4.49042609      10.10418646       0.00000000       0.00000000       0.00000000       0.00000000       0.00000000       0.00000000
    O          4.60203270      -0.96356801      11.11373686       0.00000000       0.00000000       0.00000000       0.00000000       0.00000000       0.00000000
    O          0.22288631       2.75246201      12.18447613       0.00000000       0.00000000       0.00000000       0.00000000       0.00000000       0.00000000
   Ca          3.38071637      11.99921376       3.91630535       0.00000000       0.00000000       0.00000000       0.00000000       0.00000000       0.00000000
   Ca          2.96727463       8.31115625       3.84976565       0.00000000       0.00000000       0.00000000       0.00000000       0.00000000       0.00000000
   Ca          5.27874813      13.88401699       1.58980793       0.00000000       0.00000000       0.00000000       0.00000000       0.00000000       0.00000000
   Ca          1.06924287       6.42635301       6.17626307       0.00000000       0.00000000       0.00000000       0.00000000       0.00000000       0.00000000
   Ca          5.26471883      10.15814632       1.53380679       0.00000000       0.00000000       0.00000000       0.00000000       0.00000000       0.00000000
   Ca          1.08327217      10.15222368       6.23226421       0.00000000       0.00000000       0.00000000       0.00000000       0.00000000       0.00000000
   Si          0.09207796      12.00091713       3.06627005       0.00000000       0.00000000       0.00000000       0.00000000       0.00000000       0.00000000
   Si          6.25591304       8.30945288       4.69980095       0.00000000       0.00000000       0.00000000       0.00000000       0.00000000       0.00000000
   Si          1.76957556      14.10069304       1.42960941       0.00000000       0.00000000       0.00000000       0.00000000       0.00000000       0.00000000
   Si          4.57841544       6.20967697       6.33646158       0.00000000       0.00000000       0.00000000       0.00000000       0.00000000       0.00000000
   Si          1.77773992       9.91171689       1.43523205       0.00000000       0.00000000       0.00000000       0.00000000       0.00000000       0.00000000
   Si          4.57025108      10.39865312       6.33083895       0.00000000       0.00000000       0.00000000       0.00000000       0.00000000       0.00000000
    O          0.44253122      10.66951906       2.10035720       0.00000000       0.00000000       0.00000000       0.00000000       0.00000000       0.00000000
    O          5.90545978       9.64085094       5.66571380       0.00000000       0.00000000       0.00000000       0.00000000       0.00000000       0.00000000
    O          0.44397726      13.32690781       2.08598997       0.00000000       0.00000000       0.00000000       0.00000000       0.00000000       0.00000000
    O          5.90401374       6.98346220       5.68008103       0.00000000       0.00000000       0.00000000       0.00000000       0.00000000       0.00000000
    O          1.45275140       8.30657889       1.71905865       0.00000000       0.00000000       0.00000000       0.00000000       0.00000000       0.00000000
    O          4.89523960      12.00379111       6.04701235       0.00000000       0.00000000       0.00000000       0.00000000       0.00000000       0.00000000
    O          5.61822032      12.01051025       3.10073587       0.00000000       0.00000000       0.00000000       0.00000000       0.00000000       0.00000000
    O          0.72977068       8.29985976       4.66533513       0.00000000       0.00000000       0.00000000       0.00000000       0.00000000       0.00000000
    O          1.10583722      11.98080854       7.60757325       0.00000000       0.00000000       0.00000000       0.00000000       0.00000000       0.00000000
    O          5.24215378       8.32956147       0.15849774       0.00000000       0.00000000       0.00000000       0.00000000       0.00000000       0.00000000
    O          1.13839399       8.30795479       7.62578469       0.00000000       0.00000000       0.00000000       0.00000000       0.00000000       0.00000000
    O          5.20959701      12.00241521       0.14028631       0.00000000       0.00000000       0.00000000       0.00000000       0.00000000       0.00000000
    O          3.26723827      10.05727335       5.40712693       0.00000000       0.00000000       0.00000000       0.00000000       0.00000000       0.00000000
    O          3.08075273      10.25309665       2.35894407       0.00000000       0.00000000       0.00000000       0.00000000       0.00000000       0.00000000
    O          3.26943266       6.55920592       5.42795553       0.00000000       0.00000000       0.00000000       0.00000000       0.00000000       0.00000000
    O          3.07855834      13.75116409       2.33811546       0.00000000       0.00000000       0.00000000       0.00000000       0.00000000       0.00000000
    O          5.36356869       8.29716999       3.34766586       0.00000000       0.00000000       0.00000000       0.00000000       0.00000000       0.00000000
    O          0.98442230      12.01320002       4.41840513       0.00000000       0.00000000       0.00000000       0.00000000       0.00000000       0.00000000
   Ca          2.60879237      10.13125276      11.68237634       0.00000000       0.00000000       0.00000000       0.00000000       0.00000000       0.00000000
   Ca          2.19535063       6.44319525      11.61583665       0.00000000       0.00000000       0.00000000       0.00000000       0.00000000       0.00000000
   Ca          4.50682413      12.01605599       9.35587892       0.00000000       0.00000000       0.00000000       0.00000000       0.00000000       0.00000000
   Ca          0.29731887       4.55839201      13.94233407       0.00000000       0.00000000       0.00000000       0.00000000       0.00000000       0.00000000
   Ca          4.49279483       8.29018532       9.29987779       0.00000000       0.00000000       0.00000000       0.00000000       0.00000000       0.00000000
   Ca          0.31134817       8.28426268      13.99833521       0.00000000       0.00000000       0.00000000       0.00000000       0.00000000       0.00000000
   Si         -0.67984604      10.13295613      10.83234104       0.00000000       0.00000000       0.00000000       0.00000000       0.00000000       0.00000000
   Si          5.48398904       6.44149188      12.46587195       0.00000000       0.00000000       0.00000000       0.00000000       0.00000000       0.00000000
   Si          0.99765156      12.23273204       9.19568041       0.00000000       0.00000000       0.00000000       0.00000000       0.00000000       0.00000000
   Si          3.80649144       4.34171597      14.10253258       0.00000000       0.00000000       0.00000000       0.00000000       0.00000000       0.00000000
   Si          1.00581592       8.04375589       9.20130305       0.00000000       0.00000000       0.00000000       0.00000000       0.00000000       0.00000000
   Si          3.79832708       8.53069212      14.09690995       0.00000000       0.00000000       0.00000000       0.00000000       0.00000000       0.00000000
    O         -0.32939278       8.80155806       9.86642820       0.00000000       0.00000000       0.00000000       0.00000000       0.00000000       0.00000000
    O          5.13353578       7.77288994      13.43178479       0.00000000       0.00000000       0.00000000       0.00000000       0.00000000       0.00000000
    O         -0.32794674      11.45894681       9.85206097       0.00000000       0.00000000       0.00000000       0.00000000       0.00000000       0.00000000
    O          5.13208974       5.11550120      13.44615203       0.00000000       0.00000000       0.00000000       0.00000000       0.00000000       0.00000000
    O          0.68082740       6.43861789       9.48512964       0.00000000       0.00000000       0.00000000       0.00000000       0.00000000       0.00000000
    O          4.12331560      10.13583011      13.81308335       0.00000000       0.00000000       0.00000000       0.00000000       0.00000000       0.00000000
    O          4.84629632      10.14254925      10.86680687       0.00000000       0.00000000       0.00000000       0.00000000       0.00000000       0.00000000
    O         -0.04215332       6.43189876      12.43140613       0.00000000       0.00000000       0.00000000       0.00000000       0.00000000       0.00000000
    O          0.33391322      10.11284754      15.37364425       0.00000000       0.00000000       0.00000000       0.00000000       0.00000000       0.00000000
    O          4.47022978       6.46160047       7.92456874       0.00000000       0.00000000       0.00000000       0.00000000       0.00000000       0.00000000
    O          0.36646999       6.43999380      15.39185569       0.00000000       0.00000000       0.00000000       0.00000000       0.00000000       0.00000000
    O          4.43767301      10.13445421       7.90635730       0.00000000       0.00000000       0.00000000       0.00000000       0.00000000       0.00000000
    O          2.49531427       8.18931235      13.17319793       0.00000000       0.00000000       0.00000000       0.00000000       0.00000000       0.00000000
    O          2.30882873       8.38513565      10.12501506       0.00000000       0.00000000       0.00000000       0.00000000       0.00000000       0.00000000
    O          2.49750866       4.69124492      13.19402653       0.00000000       0.00000000       0.00000000       0.00000000       0.00000000       0.00000000
    O          2.30663434      11.88320309      10.10418646       0.00000000       0.00000000       0.00000000       0.00000000       0.00000000       0.00000000
    O          4.59164470       6.42920899      11.11373686       0.00000000       0.00000000       0.00000000       0.00000000       0.00000000       0.00000000
    O          0.21249831      10.14523902      12.18447613       0.00000000       0.00000000       0.00000000       0.00000000       0.00000000       0.00000000
   Ca         10.54218337       4.60643676       3.91630535       0.00000000       0.00000000       0.00000000       0.00000000       0.00000000       0.00000000
   Ca         10.12874163       0.91837924       3.84976565       0.00000000       0.00000000       0.00000000       0.00000000       0.00000000       0.00000000
   Ca         12.44021513       6.49123999       1.58980793       0.00000000       0.00000000       0.00000000       0.00000000       0.00000000       0.00000000
   Ca          8.23070987      -0.96642399       6.17626307       0.00000000       0.00000000       0.00000000       0.00000000       0.00000000       0.00000000
   Ca         12.42618583       2.76536932       1.53380679       0.00000000       0.00000000       0.00000000       0.00000000       0.00000000       0.00000000
   Ca          8.24473917       2.75944668       6.23226421       0.00000000       0.00000000       0.00000000       0.00000000       0.00000000       0.00000000
   Si          7.25354496       4.60814013       3.06627005       0.00000000       0.00000000       0.00000000       0.00000000       0.00000000       0.00000000
   Si         13.41738004       0.91667588       4.69980095       0.00000000       0.00000000       0.00000000       0.00000000       0.00000000       0.00000000
   Si          8.93104256       6.70791604       1.42960941       0.00000000       0.00000000       0.00000000       0.00000000       0.00000000       0.00000000
   Si         11.73988244      -1.18310003       6.33646158       0.00000000       0.00000000       0.00000000       0.00000000       0.00000000       0.00000000
   Si          8.93920692       2.51893989       1.43523205       0.00000000       0.00000000       0.00000000       0.00000000       0.00000000       0.00000000
   Si         11.73171808       3.00587612       6.33083895       0.00000000       0.00000000       0.00000000       0.00000000       0.00000000       0.00000000
    O          7.60399822       3.27674206       2.10035720       0.00000000       0.00000000       0.00000000       0.00000000       0.00000000       0.00000000
    O         13.06692678       2.24807394       5.66571380       0.00000000       0.00000000       0.00000000       0.00000000       0.00000000       0.00000000
    O          7.60544426       5.93413080       2.08598997       0.00000000       0.00000000       0.00000000       0.00000000       0.00000000       0.00000000
    O         13.06548074      -0.40931480       5.68008103       0.00000000       0.00000000       0.00000000       0.00000000       0.00000000       0.00000000
    O          8.61421840       0.91380189       1.71905865       0.00000000       0.00000000       0.00000000       0.00000000       0.00000000       0.00000000
    O         12.05670660       4.61101411       6.04701235       0.00000000       0.00000000       0.00000000       0.00000000       0.00000000       0.00000000
    O         12.77968732       4.61773324       3.10073587       0.00000000       0.00000000       0.00000000       0.00000000       0.00000000       0.00000000
    O          7.89123768       0.90708276       4.66533513       0.00000000       0.00000000       0.00000000       0.00000000       0.00000000       0.00000000
    O          8.26730422       4.58803154       7.60757325       0.00000000       0.00000000       0.00000000       0.00000000       0.00000000       0.00000000
    O         12.40362078       0.93678447       0.15849774       0.00000000       0.00000000       0.00000000       0.00000000       0.00000000       0.00000000
    O          8.29986099       0.91517779       7.62578469       0.00000000       0.00000000       0.00000000       0.00000000       0.00000000       0.00000000
    O         12.37106401       4.60963821       0.14028631       0.00000000       0.00000000       0.00000000       0.00000000       0.00000000       0.00000000
    O         10.42870527       2.66449635       5.40712693       0.00000000       0.00000000       0.00000000       0.00000000       0.00000000       0.00000000
    O         10.24221973       2.86031965       2.35894407       0.00000000       0.00000000       0.00000000       0.00000000       0.00000000       0.00000000
    O         10.43089966      -0.83357108       5.42795553       0.00000000       0.00000000       0.00000000       0.00000000       0.00000000       0.00000000
    O         10.24002534       6.35838709       2.33811546       0.00000000       0.00000000       0.00000000       0.00000000       0.00000000       0.00000000
    O         12.52503569       0.90439299       3.34766586       0.00000000       0.00000000       0.00000000       0.00000000       0.00000000       0.00000000
    O          8.14588931       4.62042301       4.41840513       0.00000000       0.00000000       0.00000000       0.00000000       0.00000000       0.00000000
   Ca          9.77025937       2.73847576      11.68237634       0.00000000       0.00000000       0.00000000       0.00000000       0.00000000       0.00000000
   Ca          9.35681763      -0.94958176      11.61583665       0.00000000       0.00000000       0.00000000       0.00000000       0.00000000       0.00000000
   Ca         11.66829113       4.62327899       9.35587892       0.00000000       0.00000000       0.00000000       0.00000000       0.00000000       0.00000000
   Ca          7.45878587      -2.83438499      13.94233407       0.00000000       0.00000000       0.00000000       0.00000000       0.00000000       0.00000000
   Ca         11.65426183       0.89740832       9.29987779       0.00000000       0.00000000       0.00000000       0.00000000       0.00000000       0.00000000
   Ca          7.47281517       0.89148568      13.99833521       0.00000000       0.00000000       0.00000000       0.00000000       0.00000000       0.00000000
   Si          6.48162096       2.74017913      10.83234104       0.00000000       0.00000000       0.00000000       0.00000000       0.00000000       0.00000000
   Si         12.64545604      -0.95128512      12.46587195       0.00000000       0.00000000       0.00000000       0.00000000       0.00000000       0.00000000
   Si          8.15911856       4.83995504       9.19568041       0.00000000       0.00000000       0.00000000       0.00000000       0.00000000       0.00000000
   Si         10.96795844      -3.05106103      14.10253258       0.00000000       0.00000000       0.00000000       0.00000000       0.00000000       0.00000000
   Si          8.16728293       0.65097889       9.20130305       0.00000000       0.00000000       0.00000000       0.00000000       0.00000000       0.00000000
   Si         10.95979408       1.13791512      14.09690995       0.00000000       0.00000000       0.00000000       0.00000000       0.00000000       0.00000000
    O          6.83207422       1.40878106       9.86642820       0.00000000       0.00000000       0.00000000       0.00000000       0.00000000       0.00000000
    O         12.29500278       0.38011294      13.43178479       0.00000000       0.00000000       0.00000000       0.00000000       0.00000000       0.00000000
    O          6.83352026       4.06616980       9.85206097       0.00000000       0.00000000       0.00000000       0.00000000       0.00000000       0.00000000
    O         12.29355674      -2.27727580      13.44615203       0.00000000       0.00000000       0.00000000       0.00000000       0.00000000       0.00000000
    O          7.84229440      -0.95415911       9.48512964       0.00000000       0.00000000       0.00000000       0.00000000       0.00000000       0.00000000
    O         11.28478260       2.74305311      13.81308335       0.00000000       0.00000000       0.00000000       0.00000000       0.00000000       0.00000000
    O         12.00776332       2.74977224      10.86680687       0.00000000       0.00000000       0.00000000       0.00000000       0.00000000       0.00000000
    O          7.11931368      -0.96087824      12.43140613       0.00000000       0.00000000       0.00000000       0.00000000       0.00000000       0.00000000
    O          7.49538022       2.72007054      15.37364425       0.00000000       0.00000000       0.00000000       0.00000000       0.00000000       0.00000000
    O         11.63169678      -0.93117653       7.92456874       0.00000000       0.00000000       0.00000000       0.00000000       0.00000000       0.00000000
    O          7.52793699      -0.95278321      15.39185569       0.00000000       0.00000000       0.00000000       0.00000000       0.00000000       0.00000000
    O         11.59914001       2.74167721       7.90635730       0.00000000       0.00000000       0.00000000       0.00000000       0.00000000       0.00000000
    O          9.65678127       0.79653535      13.17319793       0.00000000       0.00000000       0.00000000       0.00000000       0.00000000       0.00000000
    O          9.47029573       0.99235865      10.12501506       0.00000000       0.00000000       0.00000000       0.00000000       0.00000000       0.00000000
    O          9.65897566      -2.70153208      13.19402653       0.00000000       0.00000000       0.00000000       0.00000000       0.00000000       0.00000000
    O          9.46810134       4.49042609      10.10418646       0.00000000       0.00000000       0.00000000       0.00000000       0.00000000       0.00000000
    O         11.75311170      -0.96356801      11.11373686       0.00000000       0.00000000       0.00000000       0.00000000       0.00000000       0.00000000
    O          7.37396531       2.75246201      12.18447613       0.00000000       0.00000000       0.00000000       0.00000000       0.00000000       0.00000000
   Ca         10.53179537      11.99921376       3.91630535       0.00000000       0.00000000       0.00000000       0.00000000       0.00000000       0.00000000
   Ca         10.11835363       8.31115625       3.84976565       0.00000000       0.00000000       0.00000000       0.00000000       0.00000000       0.00000000
   Ca         12.42982713      13.88401699       1.58980793       0.00000000       0.00000000       0.00000000       0.00000000       0.00000000       0.00000000