480
   time=   0.000000 (fs)  Energy=  0.000000 (eV)
BOX         0.00000000       3.10760200      31.06219399       0.00000000      14.30281400       0.00000000      14.78580200       0.00000000       0.00000000
   Ca          0.91825005       7.32956304       3.91551380       0.00000000       0.00000000       0.00000000       0.00000000       0.00000000       0.00000000
   Ca          4.61470055       0.59874446       3.85003470       0.00000000       0.00000000       0.00000000       0.00000000       0.00000000       0.00000000
   Ca          6.47465095       1.37564496      11.61558320       0.00000000       0.00000000       0.00000000       0.00000000       0.00000000       0.00000000
   Ca          2.77820045       8.10646354      11.68106230       0.00000000       0.00000000       0.00000000       0.00000000       0.00000000       0.00000000
   Ca          2.79680838       5.42809554       1.58982521       0.00000000       0.00000000       0.00000000       0.00000000       0.00000000       0.00000000
   Ca          6.49325888       2.50021196       6.17572329       0.00000000       0.00000000       0.00000000       0.00000000       0.00000000       0.00000000
   Ca          4.59609262       3.27711246      13.94127178       0.00000000       0.00000000       0.00000000       0.00000000       0.00000000       0.00000000
   Ca          0.89964212       6.20499604       9.35537371       0.00000000       0.00000000       0.00000000       0.00000000       0.00000000       0.00000000
   Ca          6.46295538       5.44880935       1.53467429       0.00000000       0.00000000       0.00000000       0.00000000       0.00000000       0.00000000
   Ca          2.76650488       2.47949815       6.23087421       0.00000000       0.00000000       0.00000000       0.00000000       0.00000000       0.00000000
   Ca          0.92994562       3.25639865      13.99642271       0.00000000       0.00000000       0.00000000       0.00000000       0.00000000       0.00000000
   Ca          4.62639612       6.22570985       9.30022279       0.00000000       0.00000000       0.00000000       0.00000000       0.00000000       0.00000000
   Si          0.91250577       3.46672436       3.06552793       0.00000000       0.00000000       0.00000000       0.00000000       0.00000000       0.00000000
   Si          4.60895627       4.46158314       4.70002057       0.00000000       0.00000000       0.00000000       0.00000000       0.00000000       0.00000000
   Si          6.48039523       5.23848364      12.46556907       0.00000000       0.00000000       0.00000000       0.00000000       0.00000000       0.00000000
   Si          2.78394473       4.24362486      10.83107642       0.00000000       0.00000000       0.00000000       0.00000000       0.00000000       0.00000000
   Si          3.01376045       1.78817436       1.42965301       0.00000000       0.00000000       0.00000000       0.00000000       0.00000000       0.00000000
   Si          6.71021095       6.14013314       6.33589549       0.00000000       0.00000000       0.00000000       0.00000000       0.00000000       0.00000000
   Si          4.37914055       6.91703364      14.10144399       0.00000000       0.00000000       0.00000000       0.00000000       0.00000000       0.00000000
   Si          0.68269005       2.56507486       9.19520151       0.00000000       0.00000000       0.00000000       0.00000000       0.00000000       0.00000000
   Si          6.21765892       1.78225929       1.43386194       0.00000000       0.00000000       0.00000000       0.00000000       0.00000000       0.00000000
   Si          2.52120842       6.14604821       6.33168656       0.00000000       0.00000000       0.00000000       0.00000000       0.00000000       0.00000000
   Si          1.17524208       6.92294871      14.09723506       0.00000000       0.00000000       0.00000000       0.00000000       0.00000000       0.00000000
   Si          4.87169258       2.55915979       9.19941044       0.00000000       0.00000000       0.00000000       0.00000000       0.00000000       0.00000000
    O          6.97944562       3.11883054       2.09051672       0.00000000       0.00000000       0.00000000       0.00000000       0.00000000       0.00000000
    O          3.28299512       4.80947696       5.67503178       0.00000000       0.00000000       0.00000000       0.00000000       0.00000000       0.00000000
    O          0.41345538       5.58637746      13.44058028       0.00000000       0.00000000       0.00000000       0.00000000       0.00000000       0.00000000
    O          4.10990588       3.89573104       9.85606522       0.00000000       0.00000000       0.00000000       0.00000000       0.00000000       0.00000000
    O          2.24374545       3.11262294       2.09373166       0.00000000       0.00000000       0.00000000       0.00000000       0.00000000       0.00000000
    O          5.94019595       4.81568456       5.67181684       0.00000000       0.00000000       0.00000000       0.00000000       0.00000000       0.00000000
    O          5.14915555       5.59258506      13.43736534       0.00000000       0.00000000       0.00000000       0.00000000       0.00000000       0.00000000
    O          1.45270505       3.88952344       9.85928015       0.00000000       0.00000000       0.00000000       0.00000000       0.00000000       0.00000000
    O          4.61337723       2.11108275       1.71895075       0.00000000       0.00000000       0.00000000       0.00000000       0.00000000       0.00000000
    O          0.91692673       5.81722475       6.04659775       0.00000000       0.00000000       0.00000000       0.00000000       0.00000000       0.00000000
    O          2.77952377       6.59412525      13.81214624       0.00000000       0.00000000       0.00000000       0.00000000       0.00000000       0.00000000
    O          6.47597427       2.88798325       9.48449925       0.00000000       0.00000000       0.00000000       0.00000000       0.00000000       0.00000000
    O          0.92219047       5.09149691       3.10078352       0.00000000       0.00000000       0.00000000       0.00000000       0.00000000       0.00000000
    O          4.61864097       2.83681059       4.66476498       0.00000000       0.00000000       0.00000000       0.00000000       0.00000000       0.00000000
    O          0.90999958       2.57447292       4.41769629       0.00000000       0.00000000       0.00000000       0.00000000       0.00000000       0.00000000
    O          6.47071053       3.61371109      12.43031348       0.00000000       0.00000000       0.00000000       0.00000000       0.00000000       0.00000000
    O          2.75874233       3.24037357      15.37289724       0.00000000       0.00000000       0.00000000       0.00000000       0.00000000       0.00000000
    O          6.45519283       6.24173493       7.92374825       0.00000000       0.00000000       0.00000000       0.00000000       0.00000000       0.00000000
    O          4.63415867       5.46483443       0.15819975       0.00000000       0.00000000       0.00000000       0.00000000       0.00000000       0.00000000
    O          0.93770817       2.46347307       7.60734874       0.00000000       0.00000000       0.00000000       0.00000000       0.00000000       0.00000000
    O          6.47803689       3.19661383      15.38940680       0.00000000       0.00000000       0.00000000       0.00000000       0.00000000       0.00000000
    O          2.78158639       6.28549467       7.90723870       0.00000000       0.00000000       0.00000000       0.00000000       0.00000000       0.00000000
    O          0.91486411       5.50859417       0.14169020       0.00000000       0.00000000       0.00000000       0.00000000       0.00000000       0.00000000
    O          4.61131461       2.41971333       7.62385830       0.00000000       0.00000000       0.00000000       0.00000000       0.00000000       0.00000000
    O          4.53068763       1.25929050      10.12852725       0.00000000       0.00000000       0.00000000       0.00000000       0.00000000       0.00000000
    O          0.83423713       8.22281800      13.16811824       0.00000000       0.00000000       0.00000000       0.00000000       0.00000000       0.00000000
    O          2.86221337       7.44591750       5.40256975       0.00000000       0.00000000       0.00000000       0.00000000       0.00000000       0.00000000
    O          6.55866387       0.48239000       2.36297875       0.00000000       0.00000000       0.00000000       0.00000000       0.00000000       0.00000000
    O          1.03261823       1.25334309      10.09881626       0.00000000       0.00000000       0.00000000       0.00000000       0.00000000       0.00000000
    O          4.72906873       8.22876541      13.19782923       0.00000000       0.00000000       0.00000000       0.00000000       0.00000000       0.00000000
    O          6.36028277       7.45186491       5.43228073       0.00000000       0.00000000       0.00000000       0.00000000       0.00000000       0.00000000
    O          2.66383227       0.47644259       2.33326776       0.00000000       0.00000000       0.00000000       0.00000000       0.00000000       0.00000000
    O          2.78645092       3.35137342      12.18324479       0.00000000       0.00000000       0.00000000       0.00000000       0.00000000       0.00000000
    O          6.48290142       6.13073508      11.11340070       0.00000000       0.00000000       0.00000000       0.00000000       0.00000000       0.00000000
    O          4.60645008       5.35383458       3.34785221       0.00000000       0.00000000       0.00000000       0.00000000       0.00000000       0.00000000
    O          2.77426003       5.86839741      10.86633201       0.00000000       0.00000000       0.00000000       0.00000000       0.00000000       0.00000000
   Ca          0.91825005       8.88336404      19.44661080       0.00000000       0.00000000       0.00000000       0.00000000       0.00000000       0.00000000
   Ca          4.61470055       2.15254546      19.38113169       0.00000000       0.00000000       0.00000000       0.00000000       0.00000000       0.00000000
   Ca          6.47465095       2.92944595      27.14668019       0.00000000       0.00000000       0.00000000       0.00000000       0.00000000       0.00000000
   Ca          2.77820045       9.66026454      27.21215930       0.00000000       0.00000000       0.00000000       0.00000000       0.00000000       0.00000000
   Ca          2.79680838       6.98189654      17.12092221       0.00000000       0.00000000       0.00000000       0.00000000       0.00000000       0.00000000
   Ca          6.49325888       4.05401296      21.70682028       0.00000000       0.00000000       0.00000000       0.00000000       0.00000000       0.00000000
   Ca          4.59609262       4.83091346      29.47236878       0.00000000       0.00000000       0.00000000       0.00000000       0.00000000       0.00000000
   Ca          0.89964212       7.75879704      24.88647071       0.00000000       0.00000000       0.00000000       0.00000000       0.00000000       0.00000000
   Ca          6.46295538       7.00261035      17.06577128       0.00000000       0.00000000       0.00000000       0.00000000       0.00000000       0.00000000
   Ca          2.76650488       4.03329914      21.76197121       0.00000000       0.00000000       0.00000000       0.00000000       0.00000000       0.00000000
   Ca          0.92994562       4.81019964      29.52751971       0.00000000       0.00000000       0.00000000       0.00000000       0.00000000       0.00000000
   Ca          4.62639612       7.77951085      24.83131978       0.00000000       0.00000000       0.00000000       0.00000000       0.00000000       0.00000000
   Si          0.91250577       5.02052536      18.59662492       0.00000000       0.00000000       0.00000000       0.00000000       0.00000000       0.00000000
   Si          4.60895627       6.01538414      20.23111757       0.00000000       0.00000000       0.00000000       0.00000000       0.00000000       0.00000000
   Si          6.48039523       6.79228464      27.99666607       0.00000000       0.00000000       0.00000000       0.00000000       0.00000000       0.00000000
   Si          2.78394473       5.79742586      26.36217342       0.00000000       0.00000000       0.00000000       0.00000000       0.00000000       0.00000000
   Si          3.01376045       3.34197536      16.96075001       0.00000000       0.00000000       0.00000000       0.00000000       0.00000000       0.00000000
   Si          6.71021095       7.69393414      21.86699249       0.00000000       0.00000000       0.00000000       0.00000000       0.00000000       0.00000000
   Si          4.37914055       8.47083464      29.63254098       0.00000000       0.00000000       0.00000000       0.00000000       0.00000000       0.00000000
   Si          0.68269005       4.11887586      24.72629851       0.00000000       0.00000000       0.00000000       0.00000000       0.00000000       0.00000000
   Si          6.21765892       3.33606029      16.96495893       0.00000000       0.00000000       0.00000000       0.00000000       0.00000000       0.00000000
   Si          2.52120842       7.69984921      21.86278356       0.00000000       0.00000000       0.00000000       0.00000000       0.00000000       0.00000000
   Si          1.17524208       8.47674971      29.62833206       0.00000000       0.00000000       0.00000000       0.00000000       0.00000000       0.00000000
   Si          4.87169258       4.11296079      24.73050743       0.00000000       0.00000000       0.00000000       0.00000000       0.00000000       0.00000000
    O          6.97944562       4.67263154      17.62161372       0.00000000       0.00000000       0.00000000       0.00000000       0.00000000       0.00000000
    O          3.28299512       6.36327796      21.20612878       0.00000000       0.00000000       0.00000000       0.00000000       0.00000000       0.00000000
    O          0.41345538       7.14017846      28.97167728       0.00000000       0.00000000       0.00000000       0.00000000       0.00000000       0.00000000
    O          4.10990588       5.44953204      25.38716221       0.00000000       0.00000000       0.00000000       0.00000000       0.00000000       0.00000000
    O          2.24374545       4.66642394      17.62482865       0.00000000       0.00000000       0.00000000       0.00000000       0.00000000       0.00000000
    O          5.94019595       6.36948556      21.20291384       0.00000000       0.00000000       0.00000000       0.00000000       0.00000000       0.00000000
    O          5.14915555       7.14638606      28.96846234       0.00000000       0.00000000       0.00000000       0.00000000       0.00000000       0.00000000
    O          1.45270505       5.44332444      25.39037715       0.00000000       0.00000000       0.00000000       0.00000000       0.00000000       0.00000000
    O          4.61337723       3.66488375      17.25004775       0.00000000       0.00000000       0.00000000       0.00000000       0.00000000       0.00000000
    O          0.91692673       7.37102575      21.57769474       0.00000000       0.00000000       0.00000000       0.00000000       0.00000000       0.00000000
    O          2.77952377       8.14792625      29.34324324       0.00000000       0.00000000       0.00000000       0.00000000       0.00000000       0.00000000
    O          6.47597427       4.44178425      25.01559625       0.00000000       0.00000000       0.00000000       0.00000000       0.00000000       0.00000000
    O          0.92219047       6.64529791      18.63188051       0.00000000       0.00000000       0.00000000       0.00000000       0.00000000       0.00000000
    O          4.61864097       4.39061159      20.19586198       0.00000000       0.00000000       0.00000000       0.00000000       0.00000000       0.00000000
    O          0.90999958       4.12827392      19.94879329       0.00000000       0.00000000       0.00000000       0.00000000       0.00000000       0.00000000
    O          6.47071053       5.16751209      27.96141048       0.00000000       0.00000000       0.00000000       0.00000000       0.00000000       0.00000000
    O          2.75874233       4.79417457      30.90399424       0.00000000       0.00000000       0.00000000       0.00000000       0.00000000       0.00000000
    O          6.45519283       7.79553593      23.45484525       0.00000000       0.00000000       0.00000000       0.00000000       0.00000000       0.00000000
    O          4.63415867       7.01863543      15.68929675       0.00000000       0.00000000       0.00000000       0.00000000       0.00000000       0.00000000
    O          0.93770817       4.01727407      23.13844574       0.00000000       0.00000000       0.00000000       0.00000000       0.00000000       0.00000000
    O          6.47803689       4.75041483      30.92050380       0.00000000       0.00000000       0.00000000       0.00000000       0.00000000       0.00000000
    O          2.78158639       7.83929567      23.43833569       0.00000000       0.00000000       0.00000000       0.00000000       0.00000000       0.00000000
    O          0.91486411       7.06239517      15.67278719       0.00000000       0.00000000       0.00000000       0.00000000       0.00000000       0.00000000
    O          4.61131461       3.97351433      23.15495530       0.00000000       0.00000000       0.00000000       0.00000000       0.00000000       0.00000000
    O          4.53068763       2.81309150      25.65962425       0.00000000       0.00000000       0.00000000       0.00000000       0.00000000       0.00000000
    O          0.83423713       9.77661900      28.69921524       0.00000000       0.00000000       0.00000000       0.00000000       0.00000000       0.00000000
    O          2.86221337       8.99971850      20.93366674       0.00000000       0.00000000       0.00000000       0.00000000       0.00000000       0.00000000
    O          6.55866387       2.03619100      17.89407575       0.00000000       0.00000000       0.00000000       0.00000000       0.00000000       0.00000000
    O          1.03261823       2.80714409      25.62991326       0.00000000       0.00000000       0.00000000       0.00000000       0.00000000       0.00000000
    O          4.72906873       9.78256641      28.72892623       0.00000000       0.00000000       0.00000000       0.00000000       0.00000000       0.00000000
    O          6.36028277       9.00566591      20.96337773       0.00000000       0.00000000       0.00000000       0.00000000       0.00000000       0.00000000
    O          2.66383227       2.03024359      17.86436476       0.00000000       0.00000000       0.00000000       0.00000000       0.00000000       0.00000000
    O          2.78645092       4.90517442      27.71434179       0.00000000       0.00000000       0.00000000       0.00000000       0.00000000       0.00000000
    O          6.48290142       7.68453608      26.64449770       0.00000000       0.00000000       0.00000000       0.00000000       0.00000000       0.00000000
    O          4.60645008       6.90763558      18.87894920       0.00000000       0.00000000       0.00000000       0.00000000       0.00000000       0.00000000
    O          2.77426003       7.42219841      26.39742901       0.00000000       0.00000000       0.00000000       0.00000000       0.00000000       0.00000000
   Ca          0.91825005      14.48097004       3.91551380       0.00000000       0.00000000       0.00000000       0.00000000       0.00000000       0.00000000
   Ca          4.61470055       7.75015146       3.85003470       0.00000000       0.00000000       0.00000000       0.00000000       0.00000000       0.00000000
   Ca          6.47465095       8.52705196      11.61558320       0.00000000       0.00000000       0.00000000       0.00000000       0.00000000       0.00000000
   Ca          2.77820045      15.25787054      11.68106230       0.00000000       0.00000000       0.00000000       0.00000000       0.00000000       0.00000000
   Ca          2.79680838      12.57950254       1.58982521       0.00000000       0.00000000       0.00000000       0.00000000       0.00000000       0.00000000
   Ca          6.49325888       9.65161896       6.17572329       0.00000000       0.00000000       0.00000000       0.00000000       0.00000000       0.00000000
   Ca          4.59609262      10.42851946      13.94127178       0.00000000       0.00000000       0.00000000       0.00000000       0.00000000       0.00000000
   Ca          0.89964212      13.35640304       9.35537371       0.00000000       0.00000000       0.00000000       0.00000000       0.00000000       0.00000000
   Ca          6.46295538      12.60021635       1.53467429       0.00000000       0.00000000       0.00000000       0.00000000       0.00000000       0.00000000
   Ca          2.76650488       9.63090515       6.23087421       0.00000000       0.00000000       0.00000000       0.00000000       0.00000000       0.00000000
   Ca          0.92994562      10.40780565      13.99642271       0.00000000       0.00000000       0.00000000       0.00000000       0.00000000       0.00000000
   Ca          4.62639612      13.37711685       9.30022279       0.00000000       0.00000000       0.00000000       0.00000000       0.00000000       0.00000000
   Si          0.91250577      10.61813136       3.06552793       0.00000000       0.00000000       0.00000000       0.00000000       0.00000000       0.00000000
   Si          4.60895627      11.61299014       4.70002057       0.00000000       0.00000000       0.00000000       0.00000000       0.00000000       0.00000000
   Si          6.48039523      12.38989064      12.46556907       0.00000000       0.00000000       0.00000000       0.00000000       0.00000000       0.00000000
   Si          2.78394473      11.39503186      10.83107642       0.00000000       0.00000000       0.00000000       0.00000000       0.00000000       0.00000000
   Si          3.01376045       8.93958136       1.42965301       0.00000000       0.00000000       0.00000000       0.00000000       0.00000000       0.00000000
   Si          6.71021095      13.29154014       6.33589549       0.00000000       0.00000000       0.00000000       0.00000000       0.00000000       0.00000000
   Si          4.37914055      14.06844064      14.10144399       0.00000000       0.00000000       0.00000000       0.00000000       0.00000000       0.00000000
   Si          0.68269005       9.71648186       9.19520151       0.00000000       0.00000000       0.00000000       0.00000000       0.00000000       0.00000000
   Si          6.21765892       8.93366629       1.43386194       0.00000000       0.00000000       0.00000000       0.00000000       0.00000000       0.00000000
   Si          2.52120842      13.29745521       6.33168656       0.00000000       0.00000000       0.00000000       0.00000000       0.00000000       0.00000000
   Si          1.17524208      14.07435571      14.09723506       0.00000000       0.00000000       0.00000000       0.00000000       0.00000000       0.00000000
   Si          4.87169258       9.71056679       9.19941044       0.00000000       0.00000000       0.00000000       0.00000000       0.00000000       0.00000000
    O          6.97944562      10.27023754       2.09051672       0.00000000       0.00000000       0.00000000       0.00000000       0.00000000       0.00000000
    O          3.28299512      11.96088396       5.67503178       0.00000000       0.00000000       0.00000000       0.00000000       0.00000000       0.00000000
    O          0.41345538      12.73778446      13.44058028       0.00000000       0.00000000       0.00000000       0.00000000       0.00000000       0.00000000
    O          4.10990588      11.04713804       9.85606522       0.00000000       0.00000000       0.00000000       0.00000000       0.00000000       0.00000000
    O          2.24374545      10.26402994       2.09373166       0.00000000       0.00000000       0.00000000       0.00000000       0.00000000       0.00000000
    O          5.94019595      11.96709156       5.67181684       0.00000000       0.00000000       0.00000000       0.00000000       0.00000000       0.00000000
    O          5.14915555      12.74399206      13.43736534       0.00000000       0.00000000       0.00000000       0.00000000       0.00000000       0.00000000
    O          1.45270505      11.04093044       9.85928015       0.00000000       0.00000000       0.00000000       0.00000000       0.00000000       0.00000000
    O          4.61337723       9.26248975       1.71895075       0.00000000       0.00000000       0.00000000       0.00000000       0.00000000       0.00000000
    O          0.91692673      12.96863175       6.04659775       0.00000000       0.00000000       0.00000000       0.00000000       0.00000000       0.00000000
    O          2.77952377      13.74553225      13.81214624       0.00000000       0.00000000       0.00000000       0.00000000       0.00000000       0.00000000
    O          6.47597427      10.03939025       9.48449925       0.00000000       0.00000000       0.00000000       0.00000000       0.00000000       0.00000000
    O          0.92219047      12.24290391       3.10078352       0.00000000       0.00000000       0.00000000       0.00000000       0.00000000       0.00000000
    O          4.61864097       9.98821759       4.66476498       0.00000000       0.00000000       0.00000000       0.00000000       0.00000000       0.00000000
    O          0.90999958       9.72587992       4.41769629       0.00000000       0.00000000       0.00000000       0.00000000       0.00000000       0.00000000
    O          6.47071053      10.76511809      12.43031348       0.00000000       0.00000000       0.00000000       0.00000000       0.00000000       0.00000000
    O          2.75874233      10.39178057      15.37289724       0.00000000       0.00000000       0.00000000       0.00000000       0.00000000       0.00000000
    O          6.45519283      13.39314193       7.92374825       0.00000000       0.00000000       0.00000000       0.00000000       0.00000000       0.00000000
    O          4.63415867      12.61624143       0.15819975       0.00000000       0.00000000       0.00000000       0.00000000       0.00000000       0.00000000
    O          0.93770817       9.61488007       7.60734874       0.00000000       0.00000000       0.00000000       0.00000000       0.00000000       0.00000000
    O          6.47803689      10.34802083      15.38940680       0.00000000       0.00000000       0.00000000       0.00000000       0.00000000       0.00000000
    O          2.78158639      13.43690167       7.90723870       0.00000000       0.00000000       0.00000000       0.00000000       0.00000000       0.00000000
    O          0.91486411      12.66000117       0.14169020       0.00000000       0.00000000       0.00000000       0.00000000       0.00000000       0.00000000
    O          4.61131461       9.57112033       7.62385830       0.00000000       0.00000000       0.00000000       0.00000000       0.00000000       0.00000000
    O          4.53068763       8.41069750      10.12852725       0.00000000       0.00000000       0.00000000       0.00000000       0.00000000       0.00000000
    O          0.83423713      15.37422500      13.16811824       0.00000000       0.00000000       0.00000000       0.00000000       0.00000000       0.00000000
    O          2.86221337      14.59732450       5.40256975       0.00000000       0.00000000       0.00000000       0.00000000       0.00000000       0.00000000
    O          6.55866387       7.63379700       2.36297875       0.00000000       0.00000000       0.00000000       0.00000000       0.00000000       0.00000000
    O          1.03261823       8.40475009      10.09881626       0.00000000       0.00000000       0.00000000       0.00000000       0.00000000       0.00000000
    O          4.72906873      15.38017241      13.19782923       0.00000000       0.00000000       0.00000000       0.00000000       0.00000000       0.00000000
    O          6.36028277      14.60327191       5.43228073       0.00000000       0.00000000       0.00000000       0.00000000       0.00000000       0.00000000
    O          2.66383227       7.62784959       2.33326776       0.00000000       0.00000000       0.00000000       0.00000000       0.00000000       0.00000000
    O          2.78645092      10.50278042      12.18324479       0.00000000       0.00000000       0.00000000       0.00000000       0.00000000       0.00000000
    O          6.48290142      13.28214208      11.11340070       0.00000000       0.00000000       0.00000000       0.00000000       0.00000000       0.00000000
    O          4.60645008      12.50524158       3.34785221       0.00000000       0.00000000       0.00000000       0.00000000       0.00000000       0.00000000
    O          2.77426003      13.01980441      10.86633201       0.00000000       0.00000000       0.00000000       0.00000000       0.00000000       0.00000000
   Ca          0.91825005      16.03477104      19.44661080       0.00000000       0.00000000       0.00000000       0.00000000       0.00000000       0.00000000
   Ca          4.61470055       9.30395246      19.38113169       0.00000000       0.00000000       0.00000000       0.00000000       0.00000000       0.00000000
   Ca          6.47465095      10.08085295      27.14668019       0.00000000       0.00000000       0.00000000       0.00000000       0.00000000       0.00000000