60
   time=   0.000000 (fs)  Energy=  0.000000 (eV)
BOX         0.00000000       1.55380100      15.53109700       0.00000000       7.15140700       0.00000000       7.39290100       0.00000000       0.00000000
   Ca          0.91825005       7.32956304       3.91551380       0.00000000       0.00000000       0.00000000       0.00000000       0.00000000       0.00000000
   Ca          4.61470055       0.59874446       3.85003470       0.00000000       0.00000000       0.00000000       0.00000000       0.00000000       0.00000000
   Ca          6.47465095       1.37564496      11.61558320       0.00000000       0.00000000       0.00000000       0.00000000       0.00000000       0.00000000
   Ca          2.77820045       8.10646354      11.68106230       0.00000000       0.00000000       0.00000000       0.00000000       0.00000000       0.00000000
   Ca          2.79680838       5.42809554       1.58982521       0.00000000       0.00000000       0.00000000       0.00000000       0.00000000       0.00000000
   Ca          6.49325888       2.50021196       6.17572329       0.00000000       0.00000000       0.00000000       0.00000000       0.00000000       0.00000000
   Ca          4.59609262       3.27711246      13.94127178       0.00000000       0.00000000       0.00000000       0.00000000       0.00000000       0.00000000
   Ca          0.89964212       6.20499604       9.35537371       0.00000000       0.00000000       0.00000000       0.00000000       0.00000000       0.00000000
   Ca          6.46295538       5.44880935       1.53467429       0.00000000       0.00000000       0.00000000       0.00000000       0.00000000       0.00000000
   Ca          2.76650488       2.47949815       6.23087421       0.00000000       0.00000000       0.00000000       0.00000000       0.00000000       0.00000000
   Ca          0.92994562       3.25639865      13.99642271       0.00000000       0.00000000       0.00000000       0.00000000       0.00000000       0.00000000
   Ca          4.62639612       6.22570985       9.30022279       0.00000000       0.00000000       0.00000000       0.00000000       0.00000000       0.00000000
   Si          0.91250577       3.46672436       3.06552793       0.00000000       0.00000000       0.00000000       0.00000000       0.00000000       0.00000000
   Si          4.60895627       4.46158314       4.70002057       0.00000000       0.00000000       0.00000000       0.00000000       0.00000000       0.00000000
   Si          6.48039523       5.23848364      12.46556907       0.00000000       0.00000000       0.00000000       0.00000000       0.00000000       0.00000000
   Si          2.78394473       4.24362486      10.83107642       0.00000000       0.00000000       0.00000000       0.00000000       0.00000000       0.00000000
   Si          3.01376045       1.78817436       1.42965301       0.00000000       0.00000000       0.00000000       0.00000000       0.00000000       0.00000000
   Si          6.71021095       6.14013314       6.33589549       0.00000000       0.00000000       0.00000000       0.00000000       0.00000000       0.00000000
   Si          4.37914055       6.91703364      14.10144399       0.00000000       0.00000000       0.00000000       0.00000000       0.00000000       0.00000000
   Si          0.68269005       2.56507486       9.19520151       0.00000000       0.00000000       0.00000000       0.00000000       0.00000000       0.00000000
   Si          6.21765892       1.78225929       1.43386194       0.00000000       0.00000000       0.00000000       0.00000000       0.00000000       0.00000000
   Si          2.52120842       6.14604821       6.33168656       0.00000000       0.00000000       0.00000000       0.00000000       0.00000000       0.00000000
   Si          1.17524208       6.92294871      14.09723506       0.00000000       0.00000000       0.00000000       0.00000000       0.00000000       0.00000000
   Si          4.87169258       2.55915979       9.19941044       0.00000000       0.00000000       0.00000000       0.00000000       0.00000000       0.00000000
    O          6.97944562       3.11883054       2.09051672       0.00000000       0.00000000       0.00000000       0.00000000       0.00000000       0.00000000
    O          3.28299512       4.80947696       5.67503178       0.00000000       0.00000000       0.00000000       0.00000000       0.00000000       0.00000000
    O          0.41345538       5.58637746      13.44058028       0.00000000       0.00000000       0.00000000       0.00000000       0.00000000       0.00000000
    O          4.10990588       3.89573104       9.85606522       0.00000000       0.00000000       0.00000000       0.00000000       0.00000000       0.00000000
    O          2.24374545       3.11262294       2.09373166       0.00000000       0.00000000       0.00000000       0.00000000       0.00000000       0.00000000
    O          5.94019595       4.81568456       5.67181684       0.00000000       0.00000000       0.00000000       0.00000000       0.00000000       0.00000000
    O          5.14915555       5.59258506      13.43736534       0.00000000       0.00000000       0.00000000       0.00000000       0.00000000       0.00000000
    O          1.45270505       3.88952344       9.85928015       0.00000000       0.00000000       0.00000000       0.00000000       0.00000000       0.00000000
    O          4.61337723       2.11108275       1.71895075       0.00000000       0.00000000       0.00000000       0.00000000       0.00000000       0.00000000
    O          0.91692673       5.81722475       6.04659775       0.00000000       0.00000000       0.00000000       0.00000000       0.00000000       0.00000000
    O          2.77952377       6.59412525      13.81214624       0.00000000       0.00000000       0.00000000       0.00000000       0.00000000       0.00000000
    O          6.47597427       2.88798325       9.48449925       0.00000000       0.00000000       0.00000000       0.00000000       0.00000000       0.00000000
    O          0.92219047       5.09149691       3.10078352       0.00000000       0.00000000       0.00000000       0.00000000       0.00000000       0.00000000
    O          4.61864097       2.83681059       4.66476498       0.00000000       0.00000000       0.00000000       0.00000000       0.00000000       0.00000000
    O          0.90999958       2.57447292       4.41769629       0.00000000       0.00000000       0.00000000       0.00000000       0.00000000       0.00000000
    O          6.47071053       3.61371109      12.43031348       0.00000000       0.00000000       0.00000000       0.00000000       0.00000000       0.00000000
    O          2.75874233       3.24037357      15.37289724       0.00000000       0.00000000       0.00000000       0.00000000       0.00000000       0.00000000
    O          6.45519283       6.24173493       7.92374825       0.00000000       0.00000000       0.00000000       0.00000000       0.00000000       0.00000000
    O          4.63415867       5.46483443       0.15819975       0.00000000       0.00000000       0.00000000       0.00000000       0.00000000       0.00000000
    O          0.93770817       2.46347307       7.60734874       0.00000000       0.00000000       0.00000000       0.00000000       0.00000000       0.00000000
    O          6.47803689       3.19661383      15.38940680       0.00000000       0.00000000       0.00000000       0.00000000       0.00000000       0.00000000
    O          2.78158639       6.28549467       7.90723870       0.00000000       0.00000000       0.00000000       0.00000000       0.00000000       0.00000000
    O          0.91486411       5.50859417       0.14169020       0.00000000       0.00000000       0.00000000       0.00000000       0.00000000       0.00000000
    O          4.61131461       2.41971333       7.62385830       0.00000000       0.00000000       0.00000000       0.00000000       0.00000000       0.00000000
    O          4.53068763       1.25929050      10.12852725       0.00000000       0.00000000       0.00000000       0.00000000       0.00000000       0.00000000
    O          0.83423713       8.22281800      13.16811824       0.00000000       0.00000000       0.00000000       0.00000000       0.00000000       0.00000000
    O          2.86221337       7.44591750       5.40256975       0.00000000       0.00000000       0.00000000       0.00000000       0.00000000       0.00000000
    O          6.55866387       0.48239000       2.36297875       0.00000000       0.00000000       0.00000000       0.00000000       0.00000000       0.00000000
    O          1.03261823       1.25334309      10.09881626       0.00000000       0.00000000       0.00000000       0.00000000       0.00000000       0.00000000
    O          4.72906873       8.22876541      13.19782923       0.00000000       0.00000000       0.00000000       0.00000000       0.00000000       0.00000000
    O          6.36028277       7.45186491       5.43228073       0.00000000       0.00000000       0.00000000       0.00000000       0.00000000       0.00000000
    O          2.66383227       0.47644259       2.33326776       0.00000000       0.00000000       0.00000000       0.00000000       0.00000000       0.00000000
    O          2.78645092       3.35137342      12.18324479       0.00000000       0.00000000       0.00000000       0.00000000       0.00000000       0.00000000
    O          6.48290142       6.13073508      11.11340070       0.00000000       0.00000000       0.00000000       0.00000000       0.00000000       0.00000000
    O          4.60645008       5.35383458       3.34785221       0.00000000       0.00000000       0.00000000       0.00000000       0.00000000       0.00000000
    O          2.77426003       5.86839741      10.86633201       0.00000000       0.00000000       0.00000000       0.00000000       0.00000000       0.00000000
