106
   time=   0.000000 (fs)  Energy=  0.000000 (eV)
BOX         7.76520100       0.00000000       0.00000000       0.00000000      11.06337900       2.89139700       0.00000000       0.00000000      10.97178900
    H          5.93311830       4.35706644       7.28255786       0.00000000       0.00000000       0.00000000       0.00000000       0.00000000       0.00000000
    H          2.05051780       9.59770956       3.68923114       0.00000000       0.00000000       0.00000000       0.00000000       0.00000000       0.00000000
    H          2.89256843      10.05575845       9.39800656       0.00000000       0.00000000       0.00000000       0.00000000       0.00000000       0.00000000
    H          6.77516893       3.89901755       1.57378244       0.00000000       0.00000000       0.00000000       0.00000000       0.00000000       0.00000000
    H          1.68635317       9.32425408      10.46784376       0.00000000       0.00000000       0.00000000       0.00000000       0.00000000       0.00000000
    H          5.56895367       4.63052192       0.50394524       0.00000000       0.00000000       0.00000000       0.00000000       0.00000000       0.00000000
    H          1.37809022      10.89402178       9.74117120       0.00000000       0.00000000       0.00000000       0.00000000       0.00000000       0.00000000
    H          5.26069072       3.06075422       1.23061780       0.00000000       0.00000000       0.00000000       0.00000000       0.00000000       0.00000000
    H          0.75678096       2.36441738       7.07575061       0.00000000       0.00000000       0.00000000       0.00000000       0.00000000       0.00000000
    H          4.63938146      11.59035862       3.89603839       0.00000000       0.00000000       0.00000000       0.00000000       0.00000000       0.00000000
    H          2.29446159      12.58437323       7.30842934       0.00000000       0.00000000       0.00000000       0.00000000       0.00000000       0.00000000
    H          6.17706209       1.37040277       3.66335966       0.00000000       0.00000000       0.00000000       0.00000000       0.00000000       0.00000000
    H          1.04952127      12.53122317       8.57021799       0.00000000       0.00000000       0.00000000       0.00000000       0.00000000       0.00000000
    H          4.93212177       1.42355283       2.40157101       0.00000000       0.00000000       0.00000000       0.00000000       0.00000000       0.00000000
    H          6.20267172       4.91466086       8.95031368       0.00000000       0.00000000       0.00000000       0.00000000       0.00000000       0.00000000
    H          2.32007122       9.04011514       2.02147532       0.00000000       0.00000000       0.00000000       0.00000000       0.00000000       0.00000000
    H          6.25078491       3.18798908       8.56656439       0.00000000       0.00000000       0.00000000       0.00000000       0.00000000       0.00000000
    H          2.36818441      10.76678692       2.40522461       0.00000000       0.00000000       0.00000000       0.00000000       0.00000000       0.00000000
    H          4.43118866       3.58748310      10.78039711       0.00000000       0.00000000       0.00000000       0.00000000       0.00000000       0.00000000
    H          0.54858816      10.36729290       0.19139189       0.00000000       0.00000000       0.00000000       0.00000000       0.00000000       0.00000000
    H          4.51071208      13.22494668       9.72892669       0.00000000       0.00000000       0.00000000       0.00000000       0.00000000       0.00000000
    H          0.62811158       0.72982932       1.24286231       0.00000000       0.00000000       0.00000000       0.00000000       0.00000000       0.00000000
    H          2.94802750       2.92040391      10.06070261       0.00000000       0.00000000       0.00000000       0.00000000       0.00000000       0.00000000
    H          6.83062800      11.03437208       0.91108639       0.00000000       0.00000000       0.00000000       0.00000000       0.00000000       0.00000000
    H          7.63065336      10.44439765       3.19513856       0.00000000       0.00000000       0.00000000       0.00000000       0.00000000       0.00000000
    H          3.74805286       3.51037835       7.77665044       0.00000000       0.00000000       0.00000000       0.00000000       0.00000000       0.00000000
    H          3.22852209       5.81503855       6.68808439       0.00000000       0.00000000       0.00000000       0.00000000       0.00000000       0.00000000
    H          7.11112259       8.13973745       4.28370461       0.00000000       0.00000000       0.00000000       0.00000000       0.00000000       0.00000000
    H          4.80131696       6.36441753       7.26375222       0.00000000       0.00000000       0.00000000       0.00000000       0.00000000       0.00000000
    H          0.91871646       7.59035847       3.70803678       0.00000000       0.00000000       0.00000000       0.00000000       0.00000000       0.00000000
    H          0.21487864       8.04809763       1.34130121       0.00000000       0.00000000       0.00000000       0.00000000       0.00000000       0.00000000
    H          4.09747914       5.90667837       9.63048780       0.00000000       0.00000000       0.00000000       0.00000000       0.00000000       0.00000000
    H          5.77579533       9.14608509       0.92095003       0.00000000       0.00000000       0.00000000       0.00000000       0.00000000       0.00000000
    H          1.89319483       4.80869091      10.05083898       0.00000000       0.00000000       0.00000000       0.00000000       0.00000000       0.00000000
    H          1.51369393       4.90698195       8.32881669       0.00000000       0.00000000       0.00000000       0.00000000       0.00000000       0.00000000
    H          5.39629443       9.04779405       2.64297231       0.00000000       0.00000000       0.00000000       0.00000000       0.00000000       0.00000000
    H          0.45758000       6.74212904       9.63166178       0.00000000       0.00000000       0.00000000       0.00000000       0.00000000       0.00000000
    H          4.34018050       7.21264696       1.34012722       0.00000000       0.00000000       0.00000000       0.00000000       0.00000000       0.00000000
    H          3.03433771       5.51060687       3.08666048       0.00000000       0.00000000       0.00000000       0.00000000       0.00000000       0.00000000
    H          6.91693821       8.44416913       7.88512852       0.00000000       0.00000000       0.00000000       0.00000000       0.00000000       0.00000000
    H          7.18409218       8.71572046       9.61384359       0.00000000       0.00000000       0.00000000       0.00000000       0.00000000       0.00000000
    H          3.30149168       5.23905554       1.35794541       0.00000000       0.00000000       0.00000000       0.00000000       0.00000000       0.00000000
    H          5.58413464      10.34556746       8.68169137       0.00000000       0.00000000       0.00000000       0.00000000       0.00000000       0.00000000
    H          1.70153414       3.60920854       2.29009763       0.00000000       0.00000000       0.00000000       0.00000000       0.00000000       0.00000000
    H          3.11584902       2.78523399       1.67239688       0.00000000       0.00000000       0.00000000       0.00000000       0.00000000       0.00000000
    H          6.99844952      11.16954200       9.29939212       0.00000000       0.00000000       0.00000000       0.00000000       0.00000000       0.00000000
    H          6.41018896      10.47224898       6.36282571       0.00000000       0.00000000       0.00000000       0.00000000       0.00000000       0.00000000
    H          2.52758846       3.48252702       4.60896329       0.00000000       0.00000000       0.00000000       0.00000000       0.00000000       0.00000000
    H          6.36344245      12.08555787       7.06472397       0.00000000       0.00000000       0.00000000       0.00000000       0.00000000       0.00000000
    H          2.48084195       1.86921813       3.90706503       0.00000000       0.00000000       0.00000000       0.00000000       0.00000000       0.00000000
    H          0.66651826      11.48412099       5.71229737       0.00000000       0.00000000       0.00000000       0.00000000       0.00000000       0.00000000
    H          4.54911876       2.47065501       5.25949163       0.00000000       0.00000000       0.00000000       0.00000000       0.00000000       0.00000000
    H          4.73970786       4.68618132       4.73055266       0.00000000       0.00000000       0.00000000       0.00000000       0.00000000       0.00000000
    H          0.85710736       9.26859468       6.24123634       0.00000000       0.00000000       0.00000000       0.00000000       0.00000000       0.00000000
    H          6.81442979       3.46022488       5.35644933       0.00000000       0.00000000       0.00000000       0.00000000       0.00000000       0.00000000
    H          2.93182929      10.49455112       5.61533967       0.00000000       0.00000000       0.00000000       0.00000000       0.00000000       0.00000000
    H          3.41673503      10.54229743       7.30503906       0.00000000       0.00000000       0.00000000       0.00000000       0.00000000       0.00000000
    H          7.29933553       3.41247857       3.66674994       0.00000000       0.00000000       0.00000000       0.00000000       0.00000000       0.00000000
    H          2.91121268       8.04143080       5.59588668       0.00000000       0.00000000       0.00000000       0.00000000       0.00000000       0.00000000
    H          6.79381318       5.91334520       5.37590232       0.00000000       0.00000000       0.00000000       0.00000000       0.00000000       0.00000000
    H          4.46817431       8.59777948       6.19497928       0.00000000       0.00000000       0.00000000       0.00000000       0.00000000       0.00000000
    H          0.58557381       5.35699652       4.77680972       0.00000000       0.00000000       0.00000000       0.00000000       0.00000000       0.00000000
    H          3.79192625       8.19564503       8.52619918       0.00000000       0.00000000       0.00000000       0.00000000       0.00000000       0.00000000
    H          7.67452675       5.75913097       2.44558982       0.00000000       0.00000000       0.00000000       0.00000000       0.00000000       0.00000000
    H          5.01850963       6.65439536       3.64170135       0.00000000       0.00000000       0.00000000       0.00000000       0.00000000       0.00000000
    H          1.13590913       7.30038064       7.33008765       0.00000000       0.00000000       0.00000000       0.00000000       0.00000000       0.00000000
    H          2.02200398       7.23615981      10.26501927       0.00000000       0.00000000       0.00000000       0.00000000       0.00000000       0.00000000
    H          5.90460448       6.71861619       0.70676973       0.00000000       0.00000000       0.00000000       0.00000000       0.00000000       0.00000000
    C          1.81412179       9.90693907       9.54324013       0.00000000       0.00000000       0.00000000       0.00000000       0.00000000       0.00000000
    C          5.69672229       4.04783693       1.42854887       0.00000000       0.00000000       0.00000000       0.00000000       0.00000000       0.00000000
    C          1.21221000      12.51294712       7.48478988       0.00000000       0.00000000       0.00000000       0.00000000       0.00000000       0.00000000
    C          5.09481050       1.44182888       3.48699912       0.00000000       0.00000000       0.00000000       0.00000000       0.00000000       0.00000000
    C          4.00788425       3.12985257       9.86971668       0.00000000       0.00000000       0.00000000       0.00000000       0.00000000       0.00000000
    C          0.12528375      10.82492343       1.10207232       0.00000000       0.00000000       0.00000000       0.00000000       0.00000000       0.00000000
    C          5.73019030       4.12923559       8.33686998       0.00000000       0.00000000       0.00000000       0.00000000       0.00000000       0.00000000
    C          1.84758980       9.82554041       2.63491902       0.00000000       0.00000000       0.00000000       0.00000000       0.00000000       0.00000000
    C          4.22208732       4.01865443       8.63513807       0.00000000       0.00000000       0.00000000       0.00000000       0.00000000       0.00000000
    C          0.33948682       9.93612157       2.33665093       0.00000000       0.00000000       0.00000000       0.00000000       0.00000000       0.00000000
    C          3.74075357       6.30030362       7.54229303       0.00000000       0.00000000       0.00000000       0.00000000       0.00000000       0.00000000
    C          7.62335407       7.65447238       3.42949598       0.00000000       0.00000000       0.00000000       0.00000000       0.00000000       0.00000000
    C          3.56804774       5.41858440       8.78913810       0.00000000       0.00000000       0.00000000       0.00000000       0.00000000       0.00000000
    C          7.45064824       8.53619160       2.18265090       0.00000000       0.00000000       0.00000000       0.00000000       0.00000000       0.00000000
    C          2.07443462       5.39924796       9.14464601       0.00000000       0.00000000       0.00000000       0.00000000       0.00000000       0.00000000
    C          5.95703512       8.55552804       1.82714299       0.00000000       0.00000000       0.00000000       0.00000000       0.00000000       0.00000000
    C          1.52260061       6.81519740       9.37572285       0.00000000       0.00000000       0.00000000       0.00000000       0.00000000       0.00000000
    C          5.40520111       7.13957860       1.59606615       0.00000000       0.00000000       0.00000000       0.00000000       0.00000000       0.00000000
    C          1.13794362       9.19822156       8.35017876       0.00000000       0.00000000       0.00000000       0.00000000       0.00000000       0.00000000
    C          5.02054412       4.75655444       2.62161024       0.00000000       0.00000000       0.00000000       0.00000000       0.00000000       0.00000000
    C          1.71387304       7.74229451       8.16622575       0.00000000       0.00000000       0.00000000       0.00000000       0.00000000       0.00000000
    C          5.59647354       6.21248149       2.80556325       0.00000000       0.00000000       0.00000000       0.00000000       0.00000000       0.00000000
    C          3.19413001       7.72952349       7.72187927       0.00000000       0.00000000       0.00000000       0.00000000       0.00000000       0.00000000
    C          7.07673051       6.22525251       3.24990973       0.00000000       0.00000000       0.00000000       0.00000000       0.00000000       0.00000000
    C          3.39756275       8.55397018       6.44649657       0.00000000       0.00000000       0.00000000       0.00000000       0.00000000       0.00000000
    C          7.28016325       5.40080582       4.52529243       0.00000000       0.00000000       0.00000000       0.00000000       0.00000000       0.00000000
    C          2.82445209       9.96839656       6.57565647       0.00000000       0.00000000       0.00000000       0.00000000       0.00000000       0.00000000
    C          6.70705259       3.98637944       4.39613253       0.00000000       0.00000000       0.00000000       0.00000000       0.00000000       0.00000000
    C          1.34750309       9.92938775       6.98443241       0.00000000       0.00000000       0.00000000       0.00000000       0.00000000       0.00000000
    C          5.23010359       4.02538825       3.98735659       0.00000000       0.00000000       0.00000000       0.00000000       0.00000000       0.00000000
    C          0.60783664      11.28279241       6.79488379       0.00000000       0.00000000       0.00000000       0.00000000       0.00000000       0.00000000
    C          4.49043714       2.67198359       4.17690521       0.00000000       0.00000000       0.00000000       0.00000000       0.00000000       0.00000000
    C          6.87902850      11.11507891       7.12883213       0.00000000       0.00000000       0.00000000       0.00000000       0.00000000       0.00000000
    C          2.99642800       2.83969708       3.84295687       0.00000000       0.00000000       0.00000000       0.00000000       0.00000000       0.00000000
    C          6.66108260      10.48661431       8.50402519       0.00000000       0.00000000       0.00000000       0.00000000       0.00000000       0.00000000
    C          2.77848210       3.46816169       2.46776381       0.00000000       0.00000000       0.00000000       0.00000000       0.00000000       0.00000000
    C          7.37668470       9.13437287       8.61612396       0.00000000       0.00000000       0.00000000       0.00000000       0.00000000       0.00000000
    C          3.49408420       4.82040313       2.35566504       0.00000000       0.00000000       0.00000000       0.00000000       0.00000000       0.00000000
