26
   time=   0.000000 (fs)  Energy=  0.000000 (eV)
BOX        -2.00337800      -3.69464500       6.83913600      -1.80206700       7.50958500       0.00000000       7.32588200       0.00000000       0.00000000
    K          3.59044353       2.65201663       4.95286810       0.00000000       0.00000000       0.00000000       0.00000000       0.00000000       0.00000000
    K         -0.07000653       1.16292338       1.88626790       0.00000000       0.00000000       0.00000000       0.00000000       0.00000000       0.00000000
   Al          3.81200798      -1.62142120       5.47378457       0.00000000       0.00000000       0.00000000       0.00000000       0.00000000       0.00000000
   Al         -0.29157098       5.43636120       1.36535143       0.00000000       0.00000000       0.00000000       0.00000000       0.00000000       0.00000000
   Si          3.82846518       5.43292895       1.16720798       0.00000000       0.00000000       0.00000000       0.00000000       0.00000000       0.00000000
   Si         -0.30802818      -1.61798895       5.67192802       0.00000000       0.00000000       0.00000000       0.00000000       0.00000000       0.00000000
   Si          3.76764173       2.44457196       1.13430490       0.00000000       0.00000000       0.00000000       0.00000000       0.00000000       0.00000000
   Si         -0.24720473       1.37036805       5.70483110       0.00000000       0.00000000       0.00000000       0.00000000       0.00000000       0.00000000
   Si          3.61672668      -0.17136567       2.77291401       0.00000000       0.00000000       0.00000000       0.00000000       0.00000000       0.00000000
   Si         -0.09628968       3.98630567       4.06622199       0.00000000       0.00000000       0.00000000       0.00000000       0.00000000       0.00000000
    O         -1.84626138      -2.06295836       5.84865813       0.00000000       0.00000000       0.00000000       0.00000000       0.00000000       0.00000000
    O          5.36669838       5.87789836       0.99047787       0.00000000       0.00000000       0.00000000       0.00000000       0.00000000       0.00000000
    O          3.85274129       1.43710081       2.42791380       0.00000000       0.00000000       0.00000000       0.00000000       0.00000000       0.00000000
    O         -0.33230429       2.37783919       4.41122220       0.00000000       0.00000000       0.00000000       0.00000000       0.00000000       0.00000000
    O          5.06634167       2.33730306       0.19992846       0.00000000       0.00000000       0.00000000       0.00000000       0.00000000       0.00000000
    O         -1.54590467       1.47763694       6.63920754       0.00000000       0.00000000       0.00000000       0.00000000       0.00000000       0.00000000
    O          4.90106595      -0.97092422       2.11436677       0.00000000       0.00000000       0.00000000       0.00000000       0.00000000       0.00000000
    O         -1.38062895       4.78586422       4.72476923       0.00000000       0.00000000       0.00000000       0.00000000       0.00000000       0.00000000
    O          3.68494252      -0.24576631       4.38852995       0.00000000       0.00000000       0.00000000       0.00000000       0.00000000       0.00000000
    O         -0.16450552       4.06070631       2.45060605       0.00000000       0.00000000       0.00000000       0.00000000       0.00000000       0.00000000
    O          3.64114757       3.93616514       1.82445579       0.00000000       0.00000000       0.00000000       0.00000000       0.00000000       0.00000000
    O         -0.12071057      -0.12122514       5.01468021       0.00000000       0.00000000       0.00000000       0.00000000       0.00000000       0.00000000
    O          1.30279012       4.46912207       4.70821852       0.00000000       0.00000000       0.00000000       0.00000000       0.00000000       0.00000000
    O          2.21764688      -0.65418207       2.13091748       0.00000000       0.00000000       0.00000000       0.00000000       0.00000000       0.00000000
    O          1.14605014       1.71990072       6.50566657       0.00000000       0.00000000       0.00000000       0.00000000       0.00000000       0.00000000
    O          2.37438686       2.09503928       0.33346943       0.00000000       0.00000000       0.00000000       0.00000000       0.00000000       0.00000000
