702
   time=   0.000000 (fs)  Energy=  0.000000 (eV)
BOX        -6.01013400     -11.08393500      20.51740800      -5.40620100      22.52875501       0.00000000      21.97764600       0.00000000       0.00000000
    K          3.59044353       2.65201663       4.95286810       0.00000000       0.00000000       0.00000000       0.00000000       0.00000000       0.00000000
    K         -0.07000653       1.16292338       1.88626790       0.00000000       0.00000000       0.00000000       0.00000000       0.00000000       0.00000000
   Al          3.81200798      -1.62142120       5.47378457       0.00000000       0.00000000       0.00000000       0.00000000       0.00000000       0.00000000
   Al         -0.29157098       5.43636120       1.36535143       0.00000000       0.00000000       0.00000000       0.00000000       0.00000000       0.00000000
   Si          3.82846518       5.43292895       1.16720798       0.00000000       0.00000000       0.00000000       0.00000000       0.00000000       0.00000000
   Si         -0.30802818      -1.61798895       5.67192802       0.00000000       0.00000000       0.00000000       0.00000000       0.00000000       0.00000000
   Si          3.76764173       2.44457196       1.13430490       0.00000000       0.00000000       0.00000000       0.00000000       0.00000000       0.00000000
   Si         -0.24720473       1.37036805       5.70483110       0.00000000       0.00000000       0.00000000       0.00000000       0.00000000       0.00000000
   Si          3.61672668      -0.17136567       2.77291401       0.00000000       0.00000000       0.00000000       0.00000000       0.00000000       0.00000000
   Si         -0.09628968       3.98630567       4.06622199       0.00000000       0.00000000       0.00000000       0.00000000       0.00000000       0.00000000
    O         -1.84626138      -2.06295836       5.84865813       0.00000000       0.00000000       0.00000000       0.00000000       0.00000000       0.00000000
    O          5.36669838       5.87789836       0.99047787       0.00000000       0.00000000       0.00000000       0.00000000       0.00000000       0.00000000
    O          3.85274129       1.43710081       2.42791380       0.00000000       0.00000000       0.00000000       0.00000000       0.00000000       0.00000000
    O         -0.33230429       2.37783919       4.41122220       0.00000000       0.00000000       0.00000000       0.00000000       0.00000000       0.00000000
    O          5.06634167       2.33730306       0.19992846       0.00000000       0.00000000       0.00000000       0.00000000       0.00000000       0.00000000
    O         -1.54590467       1.47763694       6.63920754       0.00000000       0.00000000       0.00000000       0.00000000       0.00000000       0.00000000
    O          4.90106595      -0.97092422       2.11436677       0.00000000       0.00000000       0.00000000       0.00000000       0.00000000       0.00000000
    O         -1.38062895       4.78586422       4.72476923       0.00000000       0.00000000       0.00000000       0.00000000       0.00000000       0.00000000
    O          3.68494252      -0.24576631       4.38852995       0.00000000       0.00000000       0.00000000       0.00000000       0.00000000       0.00000000
    O         -0.16450552       4.06070631       2.45060605       0.00000000       0.00000000       0.00000000       0.00000000       0.00000000       0.00000000
    O          3.64114757       3.93616514       1.82445579       0.00000000       0.00000000       0.00000000       0.00000000       0.00000000       0.00000000
    O         -0.12071057      -0.12122514       5.01468021       0.00000000       0.00000000       0.00000000       0.00000000       0.00000000       0.00000000
    O          1.30279012       4.46912207       4.70821852       0.00000000       0.00000000       0.00000000       0.00000000       0.00000000       0.00000000
    O          2.21764688      -0.65418207       2.13091748       0.00000000       0.00000000       0.00000000       0.00000000       0.00000000       0.00000000
    O          1.14605014       1.71990072       6.50566657       0.00000000       0.00000000       0.00000000       0.00000000       0.00000000       0.00000000
    O          2.37438686       2.09503928       0.33346943       0.00000000       0.00000000       0.00000000       0.00000000       0.00000000       0.00000000
    K          1.58706553      -1.04262837      11.79200410       0.00000000       0.00000000       0.00000000       0.00000000       0.00000000       0.00000000
    K         -2.07338453      -2.53172162       8.72540390       0.00000000       0.00000000       0.00000000       0.00000000       0.00000000       0.00000000
   Al          1.80862998      -5.31606620      12.31292057       0.00000000       0.00000000       0.00000000       0.00000000       0.00000000       0.00000000
   Al         -2.29494898       1.74171620       8.20448743       0.00000000       0.00000000       0.00000000       0.00000000       0.00000000       0.00000000
   Si          1.82508717       1.73828395       8.00634398       0.00000000       0.00000000       0.00000000       0.00000000       0.00000000       0.00000000
   Si         -2.31140618      -5.31263395      12.51106402       0.00000000       0.00000000       0.00000000       0.00000000       0.00000000       0.00000000
   Si          1.76426373      -1.25007304       7.97344090       0.00000000       0.00000000       0.00000000       0.00000000       0.00000000       0.00000000
   Si         -2.25058273      -2.32427695      12.54396710       0.00000000       0.00000000       0.00000000       0.00000000       0.00000000       0.00000000
   Si          1.61334868      -3.86601067       9.61205001       0.00000000       0.00000000       0.00000000       0.00000000       0.00000000       0.00000000
   Si         -2.09966768       0.29166067      10.90535799       0.00000000       0.00000000       0.00000000       0.00000000       0.00000000       0.00000000
    O         -3.84963938      -5.75760336      12.68779413       0.00000000       0.00000000       0.00000000       0.00000000       0.00000000       0.00000000
    O          3.36332038       2.18325336       7.82961387       0.00000000       0.00000000       0.00000000       0.00000000       0.00000000       0.00000000
    O          1.84936329      -2.25754419       9.26704980       0.00000000       0.00000000       0.00000000       0.00000000       0.00000000       0.00000000
    O         -2.33568229      -1.31680581      11.25035820       0.00000000       0.00000000       0.00000000       0.00000000       0.00000000       0.00000000
    O          3.06296367      -1.35734194       7.03906446       0.00000000       0.00000000       0.00000000       0.00000000       0.00000000       0.00000000
    O         -3.54928267      -2.21700806      13.47834354       0.00000000       0.00000000       0.00000000       0.00000000       0.00000000       0.00000000
    O          2.89768795      -4.66556922       8.95350277       0.00000000       0.00000000       0.00000000       0.00000000       0.00000000       0.00000000
    O         -3.38400695       1.09121922      11.56390523       0.00000000       0.00000000       0.00000000       0.00000000       0.00000000       0.00000000
    O          1.68156452      -3.94041131      11.22766595       0.00000000       0.00000000       0.00000000       0.00000000       0.00000000       0.00000000
    O         -2.16788352       0.36606132       9.28974205       0.00000000       0.00000000       0.00000000       0.00000000       0.00000000       0.00000000
    O          1.63776957       0.24152014       8.66359179       0.00000000       0.00000000       0.00000000       0.00000000       0.00000000       0.00000000
    O         -2.12408857      -3.81587014      11.85381621       0.00000000       0.00000000       0.00000000       0.00000000       0.00000000       0.00000000
    O         -0.70058788       0.77447707      11.54735452       0.00000000       0.00000000       0.00000000       0.00000000       0.00000000       0.00000000
    O          0.21426888      -4.34882707       8.97005348       0.00000000       0.00000000       0.00000000       0.00000000       0.00000000       0.00000000
    O         -0.85732786      -1.97474428      13.34480257       0.00000000       0.00000000       0.00000000       0.00000000       0.00000000       0.00000000
    O          0.37100886      -1.59960572       7.17260543       0.00000000       0.00000000       0.00000000       0.00000000       0.00000000       0.00000000
    K         -0.41631247      -4.73727337      18.63114010       0.00000000       0.00000000       0.00000000       0.00000000       0.00000000       0.00000000
    K         -4.07676253      -6.22636662      15.56453991       0.00000000       0.00000000       0.00000000       0.00000000       0.00000000       0.00000000
   Al         -0.19474802      -9.01071120      19.15205657       0.00000000       0.00000000       0.00000000       0.00000000       0.00000000       0.00000000
   Al         -4.29832698      -1.95292880      15.04362343       0.00000000       0.00000000       0.00000000       0.00000000       0.00000000       0.00000000
   Si         -0.17829083      -1.95636105      14.84547999       0.00000000       0.00000000       0.00000000       0.00000000       0.00000000       0.00000000
   Si         -4.31478418      -9.00727895      19.35020002       0.00000000       0.00000000       0.00000000       0.00000000       0.00000000       0.00000000
   Si         -0.23911427      -4.94471804      14.81257690       0.00000000       0.00000000       0.00000000       0.00000000       0.00000000       0.00000000
   Si         -4.25396073      -6.01892195      19.38310310       0.00000000       0.00000000       0.00000000       0.00000000       0.00000000       0.00000000
   Si         -0.39002932      -7.56065567      16.45118601       0.00000000       0.00000000       0.00000000       0.00000000       0.00000000       0.00000000
   Si         -4.10304568      -3.40298433      17.74449399       0.00000000       0.00000000       0.00000000       0.00000000       0.00000000       0.00000000
    O         -5.85301738      -9.45224836      19.52693013       0.00000000       0.00000000       0.00000000       0.00000000       0.00000000       0.00000000
    O          1.35994238      -1.51139164      14.66874987       0.00000000       0.00000000       0.00000000       0.00000000       0.00000000       0.00000000
    O         -0.15401471      -5.95218919      16.10618580       0.00000000       0.00000000       0.00000000       0.00000000       0.00000000       0.00000000
    O         -4.33906029      -5.01145081      18.08949420       0.00000000       0.00000000       0.00000000       0.00000000       0.00000000       0.00000000
    O          1.05958567      -5.05198694      13.87820046       0.00000000       0.00000000       0.00000000       0.00000000       0.00000000       0.00000000
    O         -5.55266067      -5.91165306      20.31747954       0.00000000       0.00000000       0.00000000       0.00000000       0.00000000       0.00000000
    O          0.89430995      -8.36021422      15.79263877       0.00000000       0.00000000       0.00000000       0.00000000       0.00000000       0.00000000
    O         -5.38738495      -2.60342578      18.40304123       0.00000000       0.00000000       0.00000000       0.00000000       0.00000000       0.00000000
    O         -0.32181348      -7.63505631      18.06680195       0.00000000       0.00000000       0.00000000       0.00000000       0.00000000       0.00000000
    O         -4.17126152      -3.32858368      16.12887805       0.00000000       0.00000000       0.00000000       0.00000000       0.00000000       0.00000000
    O         -0.36560844      -3.45312486      15.50272779       0.00000000       0.00000000       0.00000000       0.00000000       0.00000000       0.00000000
    O         -4.12746657      -7.51051514      18.69295221       0.00000000       0.00000000       0.00000000       0.00000000       0.00000000       0.00000000
    O         -2.70396588      -2.92016793      18.38649052       0.00000000       0.00000000       0.00000000       0.00000000       0.00000000       0.00000000
    O         -1.78910912      -8.04347207      15.80918948       0.00000000       0.00000000       0.00000000       0.00000000       0.00000000       0.00000000
    O         -2.86070586      -5.66938928      20.18393857       0.00000000       0.00000000       0.00000000       0.00000000       0.00000000       0.00000000
    O         -1.63236914      -5.29425072      14.01174143       0.00000000       0.00000000       0.00000000       0.00000000       0.00000000       0.00000000
    K          1.78837653      10.16160163       4.95286810       0.00000000       0.00000000       0.00000000       0.00000000       0.00000000       0.00000000
    K         -1.87207353       8.67250838       1.88626790       0.00000000       0.00000000       0.00000000       0.00000000       0.00000000       0.00000000
   Al          2.00994097       5.88816380       5.47378457       0.00000000       0.00000000       0.00000000       0.00000000       0.00000000       0.00000000
   Al         -2.09363798      12.94594621       1.36535143       0.00000000       0.00000000       0.00000000       0.00000000       0.00000000       0.00000000
   Si          2.02639817      12.94251396       1.16720798       0.00000000       0.00000000       0.00000000       0.00000000       0.00000000       0.00000000
   Si         -2.11009518       5.89159605       5.67192802       0.00000000       0.00000000       0.00000000       0.00000000       0.00000000       0.00000000
   Si          1.96557472       9.95415696       1.13430490       0.00000000       0.00000000       0.00000000       0.00000000       0.00000000       0.00000000
   Si         -2.04927173       8.87995305       5.70483110       0.00000000       0.00000000       0.00000000       0.00000000       0.00000000       0.00000000
   Si          1.81465968       7.33821933       2.77291401       0.00000000       0.00000000       0.00000000       0.00000000       0.00000000       0.00000000
   Si         -1.89835668      11.49589067       4.06622199       0.00000000       0.00000000       0.00000000       0.00000000       0.00000000       0.00000000
    O         -3.64832838       5.44662664       5.84865813       0.00000000       0.00000000       0.00000000       0.00000000       0.00000000       0.00000000
    O          3.56463138      13.38748337       0.99047787       0.00000000       0.00000000       0.00000000       0.00000000       0.00000000       0.00000000
    O          2.05067429       8.94668581       2.42791380       0.00000000       0.00000000       0.00000000       0.00000000       0.00000000       0.00000000
    O         -2.13437129       9.88742420       4.41122220       0.00000000       0.00000000       0.00000000       0.00000000       0.00000000       0.00000000
    O          3.26427467       9.84688806       0.19992846       0.00000000       0.00000000       0.00000000       0.00000000       0.00000000       0.00000000
    O         -3.34797167       8.98722195       6.63920754       0.00000000       0.00000000       0.00000000       0.00000000       0.00000000       0.00000000
    O          3.09899895       6.53866078       2.11436677       0.00000000       0.00000000       0.00000000       0.00000000       0.00000000       0.00000000
    O         -3.18269595      12.29544923       4.72476923       0.00000000       0.00000000       0.00000000       0.00000000       0.00000000       0.00000000
    O          1.88287551       7.26381869       4.38852995       0.00000000       0.00000000       0.00000000       0.00000000       0.00000000       0.00000000
    O         -1.96657252      11.57029132       2.45060605       0.00000000       0.00000000       0.00000000       0.00000000       0.00000000       0.00000000
    O          1.83908056      11.44575014       1.82445579       0.00000000       0.00000000       0.00000000       0.00000000       0.00000000       0.00000000
    O         -1.92277757       7.38835987       5.01468021       0.00000000       0.00000000       0.00000000       0.00000000       0.00000000       0.00000000
    O         -0.49927688      11.97870708       4.70821852       0.00000000       0.00000000       0.00000000       0.00000000       0.00000000       0.00000000
    O          0.41557988       6.85540293       2.13091748       0.00000000       0.00000000       0.00000000       0.00000000       0.00000000       0.00000000
    O         -0.65601686       9.22948572       6.50566657       0.00000000       0.00000000       0.00000000       0.00000000       0.00000000       0.00000000
    O          0.57231986       9.60462429       0.33346943       0.00000000       0.00000000       0.00000000       0.00000000       0.00000000       0.00000000
    K         -0.21500147       6.46695663      11.79200410       0.00000000       0.00000000       0.00000000       0.00000000       0.00000000       0.00000000
    K         -3.87545153       4.97786338       8.72540390       0.00000000       0.00000000       0.00000000       0.00000000       0.00000000       0.00000000
   Al          0.00656297       2.19351880      12.31292057       0.00000000       0.00000000       0.00000000       0.00000000       0.00000000       0.00000000
   Al         -4.09701598       9.25130121       8.20448743       0.00000000       0.00000000       0.00000000       0.00000000       0.00000000       0.00000000
   Si          0.02302017       9.24786896       8.00634398       0.00000000       0.00000000       0.00000000       0.00000000       0.00000000       0.00000000
   Si         -4.11347318       2.19695105      12.51106402       0.00000000       0.00000000       0.00000000       0.00000000       0.00000000       0.00000000
   Si         -0.03780328       6.25951196       7.97344090       0.00000000       0.00000000       0.00000000       0.00000000       0.00000000       0.00000000
   Si         -4.05264973       5.18530805      12.54396710       0.00000000       0.00000000       0.00000000       0.00000000       0.00000000       0.00000000
   Si         -0.18871832       3.64357434       9.61205001       0.00000000       0.00000000       0.00000000       0.00000000       0.00000000       0.00000000
   Si         -3.90173468       7.80124567      10.90535799       0.00000000       0.00000000       0.00000000       0.00000000       0.00000000       0.00000000
    O         -5.65170638       1.75198164      12.68779413       0.00000000       0.00000000       0.00000000       0.00000000       0.00000000       0.00000000
    O          1.56125338       9.69283837       7.82961387       0.00000000       0.00000000       0.00000000       0.00000000       0.00000000       0.00000000
    O          0.04729628       5.25204081       9.26704980       0.00000000       0.00000000       0.00000000       0.00000000       0.00000000       0.00000000
    O         -4.13774929       6.19277920      11.25035820       0.00000000       0.00000000       0.00000000       0.00000000       0.00000000       0.00000000
    O          1.26089667       6.15224306       7.03906446       0.00000000       0.00000000       0.00000000       0.00000000       0.00000000       0.00000000
    O         -5.35134967       5.29257695      13.47834354       0.00000000       0.00000000       0.00000000       0.00000000       0.00000000       0.00000000
    O          1.09562095       2.84401578       8.95350277       0.00000000       0.00000000       0.00000000       0.00000000       0.00000000       0.00000000
    O         -5.18607395       8.60080423      11.56390523       0.00000000       0.00000000       0.00000000       0.00000000       0.00000000       0.00000000
    O         -0.12050249       3.56917369      11.22766595       0.00000000       0.00000000       0.00000000       0.00000000       0.00000000       0.00000000
    O         -3.96995052       7.87564632       9.28974205       0.00000000       0.00000000       0.00000000       0.00000000       0.00000000       0.00000000
    O         -0.16429744       7.75110514       8.66359179       0.00000000       0.00000000       0.00000000       0.00000000       0.00000000       0.00000000
    O         -3.92615557       3.69371487      11.85381621       0.00000000       0.00000000       0.00000000       0.00000000       0.00000000       0.00000000
    O         -2.50265488       8.28406208      11.54735452       0.00000000       0.00000000       0.00000000       0.00000000       0.00000000       0.00000000
    O         -1.58779812       3.16075793       8.97005348       0.00000000       0.00000000       0.00000000       0.00000000       0.00000000       0.00000000
    O         -2.65939486       5.53484072      13.34480257       0.00000000       0.00000000       0.00000000       0.00000000       0.00000000       0.00000000
    O         -1.43105814       5.90997929       7.17260543       0.00000000       0.00000000       0.00000000       0.00000000       0.00000000       0.00000000
    K         -2.21837947       2.77231163      18.63114010       0.00000000       0.00000000       0.00000000       0.00000000       0.00000000       0.00000000
    K         -5.87882953       1.28321838      15.56453991       0.00000000       0.00000000       0.00000000       0.00000000       0.00000000       0.00000000
   Al         -1.99681503      -1.50112620      19.15205657       0.00000000       0.00000000       0.00000000       0.00000000       0.00000000       0.00000000
   Al         -6.10039398       5.55665621      15.04362343       0.00000000       0.00000000       0.00000000       0.00000000       0.00000000       0.00000000
   Si         -1.98035783       5.55322396      14.84547999       0.00000000       0.00000000       0.00000000       0.00000000       0.00000000       0.00000000
   Si         -6.11685118      -1.49769395      19.35020002       0.00000000       0.00000000       0.00000000       0.00000000       0.00000000       0.00000000
   Si         -2.04118128       2.56486696      14.81257690       0.00000000       0.00000000       0.00000000       0.00000000       0.00000000       0.00000000
   Si         -6.05602773       1.49066305      19.38310310       0.00000000       0.00000000       0.00000000       0.00000000       0.00000000       0.00000000
   Si         -2.19209632      -0.05107066      16.45118601       0.00000000       0.00000000       0.00000000       0.00000000       0.00000000       0.00000000
   Si         -5.90511268       4.10660067      17.74449399       0.00000000       0.00000000       0.00000000       0.00000000       0.00000000       0.00000000
    O         -7.65508438      -1.94266336      19.52693013       0.00000000       0.00000000       0.00000000       0.00000000       0.00000000       0.00000000
    O         -0.44212462       5.99819337      14.66874987       0.00000000       0.00000000       0.00000000       0.00000000       0.00000000       0.00000000
    O         -1.95608172       1.55739581      16.10618580       0.00000000       0.00000000       0.00000000       0.00000000       0.00000000       0.00000000
    O         -6.14112729       2.49813420      18.08949420       0.00000000       0.00000000       0.00000000       0.00000000       0.00000000       0.00000000
    O         -0.74248133       2.45759806      13.87820046       0.00000000       0.00000000       0.00000000       0.00000000       0.00000000       0.00000000
    O         -7.35472767       1.59793195      20.31747954       0.00000000       0.00000000       0.00000000       0.00000000       0.00000000       0.00000000
    O         -0.90775705      -0.85062922      15.79263877       0.00000000       0.00000000       0.00000000       0.00000000       0.00000000       0.00000000
    O         -7.18945195       4.90615923      18.40304123       0.00000000       0.00000000       0.00000000       0.00000000       0.00000000       0.00000000
    O         -2.12388049      -0.12547131      18.06680195       0.00000000       0.00000000       0.00000000       0.00000000       0.00000000       0.00000000
    O         -5.97332852       4.18100132      16.12887805       0.00000000       0.00000000       0.00000000       0.00000000       0.00000000       0.00000000
    O         -2.16767544       4.05646014      15.50272779       0.00000000       0.00000000       0.00000000       0.00000000       0.00000000       0.00000000
    O         -5.92953357      -0.00093013      18.69295221       0.00000000       0.00000000       0.00000000       0.00000000       0.00000000       0.00000000
    O         -4.50603288       4.58941708      18.38649052       0.00000000       0.00000000       0.00000000       0.00000000       0.00000000       0.00000000
    O         -3.59117612      -0.53388707      15.80918948       0.00000000       0.00000000       0.00000000       0.00000000       0.00000000       0.00000000
    O         -4.66277286       1.84019572      20.18393857       0.00000000       0.00000000       0.00000000       0.00000000       0.00000000       0.00000000
    O         -3.43443614       2.21533429      14.01174143       0.00000000       0.00000000       0.00000000       0.00000000       0.00000000       0.00000000
    K         -0.01369047      17.67118663       4.95286810       0.00000000       0.00000000       0.00000000       0.00000000       0.00000000       0.00000000
    K         -3.67414054      16.18209338       1.88626790       0.00000000       0.00000000       0.00000000       0.00000000       0.00000000       0.00000000
   Al          0.20787397      13.39774880       5.47378457       0.00000000       0.00000000       0.00000000       0.00000000       0.00000000       0.00000000
   Al         -3.89570498      20.45553121       1.36535143       0.00000000       0.00000000       0.00000000       0.00000000       0.00000000       0.00000000
   Si          0.22433117      20.45209896       1.16720798       0.00000000       0.00000000       0.00000000       0.00000000       0.00000000       0.00000000
   Si         -3.91216218      13.40118105       5.67192802       0.00000000       0.00000000       0.00000000       0.00000000       0.00000000       0.00000000
   Si          0.16350772      17.46374196       1.13430490       0.00000000       0.00000000       0.00000000       0.00000000       0.00000000       0.00000000
   Si         -3.85133873      16.38953805       5.70483110       0.00000000       0.00000000       0.00000000       0.00000000       0.00000000       0.00000000
   Si          0.01259268      14.84780434       2.77291401       0.00000000       0.00000000       0.00000000       0.00000000       0.00000000       0.00000000
   Si         -3.70042368      19.00547568       4.06622199       0.00000000       0.00000000       0.00000000       0.00000000       0.00000000       0.00000000
    O         -5.45039538      12.95621165       5.84865813       0.00000000       0.00000000       0.00000000       0.00000000       0.00000000       0.00000000
    O          1.76256438      20.89706837       0.99047787       0.00000000       0.00000000       0.00000000       0.00000000       0.00000000       0.00000000
    O          0.24860728      16.45627082       2.42791380       0.00000000       0.00000000       0.00000000       0.00000000       0.00000000       0.00000000
    O         -3.93643829      17.39700920       4.41122220       0.00000000       0.00000000       0.00000000       0.00000000       0.00000000       0.00000000
    O          1.46220767      17.35647307       0.19992846       0.00000000       0.00000000       0.00000000       0.00000000       0.00000000       0.00000000
    O         -5.15003867      16.49680695       6.63920754       0.00000000       0.00000000       0.00000000       0.00000000       0.00000000       0.00000000
    O          1.29693195      14.04824579       2.11436677       0.00000000       0.00000000       0.00000000       0.00000000       0.00000000       0.00000000
    O         -4.98476295      19.80503423       4.72476923       0.00000000       0.00000000       0.00000000       0.00000000       0.00000000       0.00000000
    O          0.08080851      14.77340369       4.38852995       0.00000000       0.00000000       0.00000000       0.00000000       0.00000000       0.00000000
    O         -3.76863952      19.07987632       2.45060605       0.00000000       0.00000000       0.00000000       0.00000000       0.00000000       0.00000000
    O          0.03701356      18.95533514       1.82445579       0.00000000       0.00000000       0.00000000       0.00000000       0.00000000       0.00000000
    O         -3.72484457      14.89794487       5.01468021       0.00000000       0.00000000       0.00000000       0.00000000       0.00000000       0.00000000
    O         -2.30134388      19.48829208       4.70821852       0.00000000       0.00000000       0.00000000       0.00000000       0.00000000       0.00000000
    O         -1.38648713      14.36498794       2.13091748       0.00000000       0.00000000       0.00000000       0.00000000       0.00000000       0.00000000
    O         -2.45808386      16.73907073       6.50566657       0.00000000       0.00000000       0.00000000       0.00000000       0.00000000       0.00000000
    O         -1.22974714      17.11420929       0.33346943       0.00000000       0.00000000       0.00000000       0.00000000       0.00000000       0.00000000
    K         -2.01706847      13.97654163      11.79200410       0.00000000       0.00000000       0.00000000       0.00000000       0.00000000       0.00000000