432
   time=   0.000000 (fs)  Energy=  0.000000 (eV)
BOX        13.54164357       7.81827156      22.11341135      13.54164357      23.45481468       0.00000000      27.08328714       0.00000000       0.00000000
    K          0.00000000       0.00000000       0.00000000       0.00000000       0.00000000       0.00000000       0.00000000       0.00000000       0.00000000
   Cl          1.84278428       2.60609052       4.51388119       0.00000000       0.00000000       0.00000000       0.00000000       0.00000000       0.00000000
    K          3.68556856       1.30304526       2.25694060       0.00000000       0.00000000       0.00000000       0.00000000       0.00000000       0.00000000
   Cl          5.52835284       3.90913578       6.77082179       0.00000000       0.00000000       0.00000000       0.00000000       0.00000000       0.00000000
    K          7.37113712       2.60609052       4.51388119       0.00000000       0.00000000       0.00000000       0.00000000       0.00000000       0.00000000
   Cl          9.21392140       5.21218104       9.02776238       0.00000000       0.00000000       0.00000000       0.00000000       0.00000000       0.00000000
    K         11.05670568       3.90913578       6.77082179       0.00000000       0.00000000       0.00000000       0.00000000       0.00000000       0.00000000
   Cl         12.89948995       6.51522630      11.28470298       0.00000000       0.00000000       0.00000000       0.00000000       0.00000000       0.00000000
    K         14.74227423       5.21218104       9.02776238       0.00000000       0.00000000       0.00000000       0.00000000       0.00000000       0.00000000
   Cl         16.58505851       7.81827156      13.54164357       0.00000000       0.00000000       0.00000000       0.00000000       0.00000000       0.00000000
    K         18.42784279       6.51522630      11.28470298       0.00000000       0.00000000       0.00000000       0.00000000       0.00000000       0.00000000
   Cl         20.27062707       9.12131682      15.79858417       0.00000000       0.00000000       0.00000000       0.00000000       0.00000000       0.00000000
    K          0.00000000       3.90913578       2.25694060       0.00000000       0.00000000       0.00000000       0.00000000       0.00000000       0.00000000
   Cl          1.84278428       6.51522630       6.77082179       0.00000000       0.00000000       0.00000000       0.00000000       0.00000000       0.00000000
    K          3.68556856       5.21218104       4.51388119       0.00000000       0.00000000       0.00000000       0.00000000       0.00000000       0.00000000
   Cl          5.52835284       7.81827156       9.02776238       0.00000000       0.00000000       0.00000000       0.00000000       0.00000000       0.00000000
    K          7.37113712       6.51522630       6.77082179       0.00000000       0.00000000       0.00000000       0.00000000       0.00000000       0.00000000
   Cl          9.21392140       9.12131682      11.28470298       0.00000000       0.00000000       0.00000000       0.00000000       0.00000000       0.00000000
    K         11.05670568       7.81827156       9.02776238       0.00000000       0.00000000       0.00000000       0.00000000       0.00000000       0.00000000
   Cl         12.89948995      10.42436208      13.54164357       0.00000000       0.00000000       0.00000000       0.00000000       0.00000000       0.00000000
    K         14.74227423       9.12131682      11.28470298       0.00000000       0.00000000       0.00000000       0.00000000       0.00000000       0.00000000
   Cl         16.58505851      11.72740734      15.79858417       0.00000000       0.00000000       0.00000000       0.00000000       0.00000000       0.00000000
    K         18.42784279      10.42436208      13.54164357       0.00000000       0.00000000       0.00000000       0.00000000       0.00000000       0.00000000
   Cl         20.27062707      13.03045260      18.05552476       0.00000000       0.00000000       0.00000000       0.00000000       0.00000000       0.00000000
    K          0.00000000       7.81827156       4.51388119       0.00000000       0.00000000       0.00000000       0.00000000       0.00000000       0.00000000
   Cl          1.84278428      10.42436208       9.02776238       0.00000000       0.00000000       0.00000000       0.00000000       0.00000000       0.00000000
    K          3.68556856       9.12131682       6.77082179       0.00000000       0.00000000       0.00000000       0.00000000       0.00000000       0.00000000
   Cl          5.52835284      11.72740734      11.28470298       0.00000000       0.00000000       0.00000000       0.00000000       0.00000000       0.00000000
    K          7.37113712      10.42436208       9.02776238       0.00000000       0.00000000       0.00000000       0.00000000       0.00000000       0.00000000
   Cl          9.21392140      13.03045260      13.54164357       0.00000000       0.00000000       0.00000000       0.00000000       0.00000000       0.00000000
    K         11.05670568      11.72740734      11.28470298       0.00000000       0.00000000       0.00000000       0.00000000       0.00000000       0.00000000
   Cl         12.89948995      14.33349786      15.79858417       0.00000000       0.00000000       0.00000000       0.00000000       0.00000000       0.00000000
    K         14.74227423      13.03045260      13.54164357       0.00000000       0.00000000       0.00000000       0.00000000       0.00000000       0.00000000
   Cl         16.58505851      15.63654312      18.05552476       0.00000000       0.00000000       0.00000000       0.00000000       0.00000000       0.00000000
    K         18.42784279      14.33349786      15.79858417       0.00000000       0.00000000       0.00000000       0.00000000       0.00000000       0.00000000
   Cl         20.27062707      16.93958838      20.31246536       0.00000000       0.00000000       0.00000000       0.00000000       0.00000000       0.00000000
    K          0.00000000      11.72740734       6.77082179       0.00000000       0.00000000       0.00000000       0.00000000       0.00000000       0.00000000
   Cl          1.84278428      14.33349786      11.28470298       0.00000000       0.00000000       0.00000000       0.00000000       0.00000000       0.00000000
    K          3.68556856      13.03045260       9.02776238       0.00000000       0.00000000       0.00000000       0.00000000       0.00000000       0.00000000
   Cl          5.52835284      15.63654312      13.54164357       0.00000000       0.00000000       0.00000000       0.00000000       0.00000000       0.00000000
    K          7.37113712      14.33349786      11.28470298       0.00000000       0.00000000       0.00000000       0.00000000       0.00000000       0.00000000
   Cl          9.21392140      16.93958838      15.79858417       0.00000000       0.00000000       0.00000000       0.00000000       0.00000000       0.00000000
    K         11.05670568      15.63654312      13.54164357       0.00000000       0.00000000       0.00000000       0.00000000       0.00000000       0.00000000
   Cl         12.89948995      18.24263364      18.05552476       0.00000000       0.00000000       0.00000000       0.00000000       0.00000000       0.00000000
    K         14.74227423      16.93958838      15.79858417       0.00000000       0.00000000       0.00000000       0.00000000       0.00000000       0.00000000
   Cl         16.58505851      19.54567890      20.31246536       0.00000000       0.00000000       0.00000000       0.00000000       0.00000000       0.00000000
    K         18.42784279      18.24263364      18.05552476       0.00000000       0.00000000       0.00000000       0.00000000       0.00000000       0.00000000
   Cl         20.27062707      20.84872416      22.56940595       0.00000000       0.00000000       0.00000000       0.00000000       0.00000000       0.00000000
    K          0.00000000      15.63654312       9.02776238       0.00000000       0.00000000       0.00000000       0.00000000       0.00000000       0.00000000
   Cl          1.84278428      18.24263364      13.54164357       0.00000000       0.00000000       0.00000000       0.00000000       0.00000000       0.00000000
    K          3.68556856      16.93958838      11.28470298       0.00000000       0.00000000       0.00000000       0.00000000       0.00000000       0.00000000
   Cl          5.52835284      19.54567890      15.79858417       0.00000000       0.00000000       0.00000000       0.00000000       0.00000000       0.00000000
    K          7.37113712      18.24263364      13.54164357       0.00000000       0.00000000       0.00000000       0.00000000       0.00000000       0.00000000
   Cl          9.21392140      20.84872416      18.05552476       0.00000000       0.00000000       0.00000000       0.00000000       0.00000000       0.00000000
    K         11.05670568      19.54567890      15.79858417       0.00000000       0.00000000       0.00000000       0.00000000       0.00000000       0.00000000
   Cl         12.89948995      22.15176942      20.31246536       0.00000000       0.00000000       0.00000000       0.00000000       0.00000000       0.00000000
    K         14.74227423      20.84872416      18.05552476       0.00000000       0.00000000       0.00000000       0.00000000       0.00000000       0.00000000
   Cl         16.58505851      23.45481468      22.56940595       0.00000000       0.00000000       0.00000000       0.00000000       0.00000000       0.00000000
    K         18.42784279      22.15176942      20.31246536       0.00000000       0.00000000       0.00000000       0.00000000       0.00000000       0.00000000
   Cl         20.27062707      24.75785994      24.82634655       0.00000000       0.00000000       0.00000000       0.00000000       0.00000000       0.00000000
    K          0.00000000      19.54567890      11.28470298       0.00000000       0.00000000       0.00000000       0.00000000       0.00000000       0.00000000
   Cl          1.84278428      22.15176942      15.79858417       0.00000000       0.00000000       0.00000000       0.00000000       0.00000000       0.00000000
    K          3.68556856      20.84872416      13.54164357       0.00000000       0.00000000       0.00000000       0.00000000       0.00000000       0.00000000
   Cl          5.52835284      23.45481468      18.05552476       0.00000000       0.00000000       0.00000000       0.00000000       0.00000000       0.00000000
    K          7.37113712      22.15176942      15.79858417       0.00000000       0.00000000       0.00000000       0.00000000       0.00000000       0.00000000
   Cl          9.21392140      24.75785994      20.31246536       0.00000000       0.00000000       0.00000000       0.00000000       0.00000000       0.00000000
    K         11.05670568      23.45481468      18.05552476       0.00000000       0.00000000       0.00000000       0.00000000       0.00000000       0.00000000
   Cl         12.89948995      26.06090520      22.56940595       0.00000000       0.00000000       0.00000000       0.00000000       0.00000000       0.00000000
    K         14.74227423      24.75785994      20.31246536       0.00000000       0.00000000       0.00000000       0.00000000       0.00000000       0.00000000
   Cl         16.58505851      27.36395046      24.82634655       0.00000000       0.00000000       0.00000000       0.00000000       0.00000000       0.00000000
    K         18.42784279      26.06090520      22.56940595       0.00000000       0.00000000       0.00000000       0.00000000       0.00000000       0.00000000
   Cl         20.27062707      28.66699572      27.08328714       0.00000000       0.00000000       0.00000000       0.00000000       0.00000000       0.00000000
    K          0.00000000       0.00000000       4.51388119       0.00000000       0.00000000       0.00000000       0.00000000       0.00000000       0.00000000
   Cl          1.84278428       2.60609052       9.02776238       0.00000000       0.00000000       0.00000000       0.00000000       0.00000000       0.00000000
    K          3.68556856       1.30304526       6.77082179       0.00000000       0.00000000       0.00000000       0.00000000       0.00000000       0.00000000
   Cl          5.52835284       3.90913578      11.28470298       0.00000000       0.00000000       0.00000000       0.00000000       0.00000000       0.00000000
    K          7.37113712       2.60609052       9.02776238       0.00000000       0.00000000       0.00000000       0.00000000       0.00000000       0.00000000
   Cl          9.21392140       5.21218104      13.54164357       0.00000000       0.00000000       0.00000000       0.00000000       0.00000000       0.00000000
    K         11.05670568       3.90913578      11.28470298       0.00000000       0.00000000       0.00000000       0.00000000       0.00000000       0.00000000
   Cl         12.89948995       6.51522630      15.79858417       0.00000000       0.00000000       0.00000000       0.00000000       0.00000000       0.00000000
    K         14.74227423       5.21218104      13.54164357       0.00000000       0.00000000       0.00000000       0.00000000       0.00000000       0.00000000
   Cl         16.58505851       7.81827156      18.05552476       0.00000000       0.00000000       0.00000000       0.00000000       0.00000000       0.00000000
    K         18.42784279       6.51522630      15.79858417       0.00000000       0.00000000       0.00000000       0.00000000       0.00000000       0.00000000
   Cl         20.27062707       9.12131682      20.31246536       0.00000000       0.00000000       0.00000000       0.00000000       0.00000000       0.00000000
    K          0.00000000       3.90913578       6.77082179       0.00000000       0.00000000       0.00000000       0.00000000       0.00000000       0.00000000
   Cl          1.84278428       6.51522630      11.28470298       0.00000000       0.00000000       0.00000000       0.00000000       0.00000000       0.00000000
    K          3.68556856       5.21218104       9.02776238       0.00000000       0.00000000       0.00000000       0.00000000       0.00000000       0.00000000
   Cl          5.52835284       7.81827156      13.54164357       0.00000000       0.00000000       0.00000000       0.00000000       0.00000000       0.00000000
    K          7.37113712       6.51522630      11.28470298       0.00000000       0.00000000       0.00000000       0.00000000       0.00000000       0.00000000
   Cl          9.21392140       9.12131682      15.79858417       0.00000000       0.00000000       0.00000000       0.00000000       0.00000000       0.00000000
    K         11.05670568       7.81827156      13.54164357       0.00000000       0.00000000       0.00000000       0.00000000       0.00000000       0.00000000
   Cl         12.89948995      10.42436208      18.05552476       0.00000000       0.00000000       0.00000000       0.00000000       0.00000000       0.00000000
    K         14.74227423       9.12131682      15.79858417       0.00000000       0.00000000       0.00000000       0.00000000       0.00000000       0.00000000
   Cl         16.58505851      11.72740734      20.31246536       0.00000000       0.00000000       0.00000000       0.00000000       0.00000000       0.00000000
    K         18.42784279      10.42436208      18.05552476       0.00000000       0.00000000       0.00000000       0.00000000       0.00000000       0.00000000
   Cl         20.27062707      13.03045260      22.56940595       0.00000000       0.00000000       0.00000000       0.00000000       0.00000000       0.00000000
    K          0.00000000       7.81827156       9.02776238       0.00000000       0.00000000       0.00000000       0.00000000       0.00000000       0.00000000
   Cl          1.84278428      10.42436208      13.54164357       0.00000000       0.00000000       0.00000000       0.00000000       0.00000000       0.00000000
    K          3.68556856       9.12131682      11.28470298       0.00000000       0.00000000       0.00000000       0.00000000       0.00000000       0.00000000
   Cl          5.52835284      11.72740734      15.79858417       0.00000000       0.00000000       0.00000000       0.00000000       0.00000000       0.00000000
    K          7.37113712      10.42436208      13.54164357       0.00000000       0.00000000       0.00000000       0.00000000       0.00000000       0.00000000
   Cl          9.21392140      13.03045260      18.05552476       0.00000000       0.00000000       0.00000000       0.00000000       0.00000000       0.00000000
    K         11.05670568      11.72740734      15.79858417       0.00000000       0.00000000       0.00000000       0.00000000       0.00000000       0.00000000
   Cl         12.89948995      14.33349786      20.31246536       0.00000000       0.00000000       0.00000000       0.00000000       0.00000000       0.00000000
    K         14.74227423      13.03045260      18.05552476       0.00000000       0.00000000       0.00000000       0.00000000       0.00000000       0.00000000
   Cl         16.58505851      15.63654312      22.56940595       0.00000000       0.00000000       0.00000000       0.00000000       0.00000000       0.00000000
    K         18.42784279      14.33349786      20.31246536       0.00000000       0.00000000       0.00000000       0.00000000       0.00000000       0.00000000
   Cl         20.27062707      16.93958838      24.82634655       0.00000000       0.00000000       0.00000000       0.00000000       0.00000000       0.00000000
    K          0.00000000      11.72740734      11.28470298       0.00000000       0.00000000       0.00000000       0.00000000       0.00000000       0.00000000
   Cl          1.84278428      14.33349786      15.79858417       0.00000000       0.00000000       0.00000000       0.00000000       0.00000000       0.00000000
    K          3.68556856      13.03045260      13.54164357       0.00000000       0.00000000       0.00000000       0.00000000       0.00000000       0.00000000
   Cl          5.52835284      15.63654312      18.05552476       0.00000000       0.00000000       0.00000000       0.00000000       0.00000000       0.00000000
    K          7.37113712      14.33349786      15.79858417       0.00000000       0.00000000       0.00000000       0.00000000       0.00000000       0.00000000
   Cl          9.21392140      16.93958838      20.31246536       0.00000000       0.00000000       0.00000000       0.00000000       0.00000000       0.00000000
    K         11.05670568      15.63654312      18.05552476       0.00000000       0.00000000       0.00000000       0.00000000       0.00000000       0.00000000
   Cl         12.89948995      18.24263364      22.56940595       0.00000000       0.00000000       0.00000000       0.00000000       0.00000000       0.00000000
    K         14.74227423      16.93958838      20.31246536       0.00000000       0.00000000       0.00000000       0.00000000       0.00000000       0.00000000
   Cl         16.58505851      19.54567890      24.82634655       0.00000000       0.00000000       0.00000000       0.00000000       0.00000000       0.00000000
    K         18.42784279      18.24263364      22.56940595       0.00000000       0.00000000       0.00000000       0.00000000       0.00000000       0.00000000
   Cl         20.27062707      20.84872416      27.08328714       0.00000000       0.00000000       0.00000000       0.00000000       0.00000000       0.00000000
    K          0.00000000      15.63654312      13.54164357       0.00000000       0.00000000       0.00000000       0.00000000       0.00000000       0.00000000
   Cl          1.84278428      18.24263364      18.05552476       0.00000000       0.00000000       0.00000000       0.00000000       0.00000000       0.00000000
    K          3.68556856      16.93958838      15.79858417       0.00000000       0.00000000       0.00000000       0.00000000       0.00000000       0.00000000
   Cl          5.52835284      19.54567890      20.31246536       0.00000000       0.00000000       0.00000000       0.00000000       0.00000000       0.00000000
    K          7.37113712      18.24263364      18.05552476       0.00000000       0.00000000       0.00000000       0.00000000       0.00000000       0.00000000
   Cl          9.21392140      20.84872416      22.56940595       0.00000000       0.00000000       0.00000000       0.00000000       0.00000000       0.00000000
    K         11.05670568      19.54567890      20.31246536       0.00000000       0.00000000       0.00000000       0.00000000       0.00000000       0.00000000
   Cl         12.89948995      22.15176942      24.82634655       0.00000000       0.00000000       0.00000000       0.00000000       0.00000000       0.00000000
    K         14.74227423      20.84872416      22.56940595       0.00000000       0.00000000       0.00000000       0.00000000       0.00000000       0.00000000
   Cl         16.58505851      23.45481468      27.08328714       0.00000000       0.00000000       0.00000000       0.00000000       0.00000000       0.00000000
    K         18.42784279      22.15176942      24.82634655       0.00000000       0.00000000       0.00000000       0.00000000       0.00000000       0.00000000
   Cl         20.27062707      24.75785994      29.34022774       0.00000000       0.00000000       0.00000000       0.00000000       0.00000000       0.00000000
    K          0.00000000      19.54567890      15.79858417       0.00000000       0.00000000       0.00000000       0.00000000       0.00000000       0.00000000
   Cl          1.84278428      22.15176942      20.31246536       0.00000000       0.00000000       0.00000000       0.00000000       0.00000000       0.00000000
    K          3.68556856      20.84872416      18.05552476       0.00000000       0.00000000       0.00000000       0.00000000       0.00000000       0.00000000
   Cl          5.52835284      23.45481468      22.56940595       0.00000000       0.00000000       0.00000000       0.00000000       0.00000000       0.00000000
    K          7.37113712      22.15176942      20.31246536       0.00000000       0.00000000       0.00000000       0.00000000       0.00000000       0.00000000
   Cl          9.21392140      24.75785994      24.82634655       0.00000000       0.00000000       0.00000000       0.00000000       0.00000000       0.00000000
    K         11.05670568      23.45481468      22.56940595       0.00000000       0.00000000       0.00000000       0.00000000       0.00000000       0.00000000
   Cl         12.89948995      26.06090520      27.08328714       0.00000000       0.00000000       0.00000000       0.00000000       0.00000000       0.00000000
    K         14.74227423      24.75785994      24.82634655       0.00000000       0.00000000       0.00000000       0.00000000       0.00000000       0.00000000
   Cl         16.58505851      27.36395046      29.34022774       0.00000000       0.00000000       0.00000000       0.00000000       0.00000000       0.00000000
    K         18.42784279      26.06090520      27.08328714       0.00000000       0.00000000       0.00000000       0.00000000       0.00000000       0.00000000
   Cl         20.27062707      28.66699572      31.59716833       0.00000000       0.00000000       0.00000000       0.00000000       0.00000000       0.00000000
    K          0.00000000       0.00000000       9.02776238       0.00000000       0.00000000       0.00000000       0.00000000       0.00000000       0.00000000
   Cl          1.84278428       2.60609052      13.54164357       0.00000000       0.00000000       0.00000000       0.00000000       0.00000000       0.00000000
    K          3.68556856       1.30304526      11.28470298       0.00000000       0.00000000       0.00000000       0.00000000       0.00000000       0.00000000
   Cl          5.52835284       3.90913578      15.79858417       0.00000000       0.00000000       0.00000000       0.00000000       0.00000000       0.00000000
    K          7.37113712       2.60609052      13.54164357       0.00000000       0.00000000       0.00000000       0.00000000       0.00000000       0.00000000
   Cl          9.21392140       5.21218104      18.05552476       0.00000000       0.00000000       0.00000000       0.00000000       0.00000000       0.00000000
    K         11.05670568       3.90913578      15.79858417       0.00000000       0.00000000       0.00000000       0.00000000       0.00000000       0.00000000
   Cl         12.89948995       6.51522630      20.31246536       0.00000000       0.00000000       0.00000000       0.00000000       0.00000000       0.00000000
    K         14.74227423       5.21218104      18.05552476       0.00000000       0.00000000       0.00000000       0.00000000       0.00000000       0.00000000
   Cl         16.58505851       7.81827156      22.56940595       0.00000000       0.00000000       0.00000000       0.00000000       0.00000000       0.00000000
    K         18.42784279       6.51522630      20.31246536       0.00000000       0.00000000       0.00000000       0.00000000       0.00000000       0.00000000
   Cl         20.27062707       9.12131682      24.82634655       0.00000000       0.00000000       0.00000000       0.00000000       0.00000000       0.00000000
    K          0.00000000       3.90913578      11.28470298       0.00000000       0.00000000       0.00000000       0.00000000       0.00000000       0.00000000
   Cl          1.84278428       6.51522630      15.79858417       0.00000000       0.00000000       0.00000000       0.00000000       0.00000000       0.00000000
    K          3.68556856       5.21218104      13.54164357       0.00000000       0.00000000       0.00000000       0.00000000       0.00000000       0.00000000
   Cl          5.52835284       7.81827156      18.05552476       0.00000000       0.00000000       0.00000000       0.00000000       0.00000000       0.00000000
    K          7.37113712       6.51522630      15.79858417       0.00000000       0.00000000       0.00000000       0.00000000       0.00000000       0.00000000
   Cl          9.21392140       9.12131682      20.31246536       0.00000000       0.00000000       0.00000000       0.00000000       0.00000000       0.00000000
    K         11.05670568       7.81827156      18.05552476       0.00000000       0.00000000       0.00000000       0.00000000       0.00000000       0.00000000
   Cl         12.89948995      10.42436208      22.56940595       0.00000000       0.00000000       0.00000000       0.00000000       0.00000000       0.00000000
    K         14.74227423       9.12131682      20.31246536       0.00000000       0.00000000       0.00000000       0.00000000       0.00000000       0.00000000
   Cl         16.58505851      11.72740734      24.82634655       0.00000000       0.00000000       0.00000000       0.00000000       0.00000000       0.00000000
    K         18.42784279      10.42436208      22.56940595       0.00000000       0.00000000       0.00000000       0.00000000       0.00000000       0.00000000
   Cl         20.27062707      13.03045260      27.08328714       0.00000000       0.00000000       0.00000000       0.00000000       0.00000000       0.00000000
    K          0.00000000       7.81827156      13.54164357       0.00000000       0.00000000       0.00000000       0.00000000       0.00000000       0.00000000
   Cl          1.84278428      10.42436208      18.05552476       0.00000000       0.00000000       0.00000000       0.00000000       0.00000000       0.00000000
    K          3.68556856       9.12131682      15.79858417       0.00000000       0.00000000       0.00000000       0.00000000       0.00000000       0.00000000
   Cl          5.52835284      11.72740734      20.31246536       0.00000000       0.00000000       0.00000000       0.00000000       0.00000000       0.00000000
    K          7.37113712      10.42436208      18.05552476       0.00000000       0.00000000       0.00000000       0.00000000       0.00000000       0.00000000
   Cl          9.21392140      13.03045260      22.56940595       0.00000000       0.00000000       0.00000000       0.00000000       0.00000000       0.00000000
    K         11.05670568      11.72740734      20.31246536       0.00000000       0.00000000       0.00000000       0.00000000       0.00000000       0.00000000
   Cl         12.89948995      14.33349786      24.82634655       0.00000000       0.00000000       0.00000000       0.00000000       0.00000000       0.00000000
    K         14.74227423      13.03045260      22.56940595       0.00000000       0.00000000       0.00000000       0.00000000       0.00000000       0.00000000
   Cl         16.58505851      15.63654312      27.08328714       0.00000000       0.00000000       0.00000000       0.00000000       0.00000000       0.00000000
    K         18.42784279      14.33349786      24.82634655       0.00000000       0.00000000       0.00000000       0.00000000       0.00000000       0.00000000
   Cl         20.27062707      16.93958838      29.34022774       0.00000000       0.00000000       0.00000000       0.00000000       0.00000000       0.00000000
    K          0.00000000      11.72740734      15.79858417       0.00000000       0.00000000       0.00000000       0.00000000       0.00000000       0.00000000
   Cl          1.84278428      14.33349786      20.31246536       0.00000000       0.00000000       0.00000000       0.00000000       0.00000000       0.00000000
    K          3.68556856      13.03045260      18.05552476       0.00000000       0.00000000       0.00000000       0.00000000       0.00000000       0.00000000