432
   time=   0.000000 (fs)  Energy=  0.000000 (eV)
BOX        22.56940595       0.00000000       0.00000000       0.00000000      22.56940595       0.00000000       0.00000000       0.00000000      22.56940595
    K          0.00000000       0.00000000       0.00000000       0.00000000       0.00000000       0.00000000       0.00000000       0.00000000       0.00000000
   Cl          0.50000000       0.50000000       0.50000000       0.00000000       0.00000000       0.00000000       0.00000000       0.00000000       0.00000000
    K          0.00000000       0.00000000       1.00000000       0.00000000       0.00000000       0.00000000       0.00000000       0.00000000       0.00000000
   Cl          0.50000000       0.50000000       1.50000000       0.00000000       0.00000000       0.00000000       0.00000000       0.00000000       0.00000000
    K          0.00000000       0.00000000       2.00000000       0.00000000       0.00000000       0.00000000       0.00000000       0.00000000       0.00000000
   Cl          0.50000000       0.50000000       2.50000000       0.00000000       0.00000000       0.00000000       0.00000000       0.00000000       0.00000000
    K          0.00000000       0.00000000       3.00000000       0.00000000       0.00000000       0.00000000       0.00000000       0.00000000       0.00000000
   Cl          0.50000000       0.50000000       3.50000000       0.00000000       0.00000000       0.00000000       0.00000000       0.00000000       0.00000000
    K          0.00000000       0.00000000       4.00000000       0.00000000       0.00000000       0.00000000       0.00000000       0.00000000       0.00000000
   Cl          0.50000000       0.50000000       4.50000000       0.00000000       0.00000000       0.00000000       0.00000000       0.00000000       0.00000000
    K          0.00000000       0.00000000       5.00000000       0.00000000       0.00000000       0.00000000       0.00000000       0.00000000       0.00000000
   Cl          0.50000000       0.50000000       5.50000000       0.00000000       0.00000000       0.00000000       0.00000000       0.00000000       0.00000000
    K          0.00000000       1.00000000       0.00000000       0.00000000       0.00000000       0.00000000       0.00000000       0.00000000       0.00000000
   Cl          0.50000000       1.50000000       0.50000000       0.00000000       0.00000000       0.00000000       0.00000000       0.00000000       0.00000000
    K          0.00000000       1.00000000       1.00000000       0.00000000       0.00000000       0.00000000       0.00000000       0.00000000       0.00000000
   Cl          0.50000000       1.50000000       1.50000000       0.00000000       0.00000000       0.00000000       0.00000000       0.00000000       0.00000000
    K          0.00000000       1.00000000       2.00000000       0.00000000       0.00000000       0.00000000       0.00000000       0.00000000       0.00000000
   Cl          0.50000000       1.50000000       2.50000000       0.00000000       0.00000000       0.00000000       0.00000000       0.00000000       0.00000000
    K          0.00000000       1.00000000       3.00000000       0.00000000       0.00000000       0.00000000       0.00000000       0.00000000       0.00000000
   Cl          0.50000000       1.50000000       3.50000000       0.00000000       0.00000000       0.00000000       0.00000000       0.00000000       0.00000000
    K          0.00000000       1.00000000       4.00000000       0.00000000       0.00000000       0.00000000       0.00000000       0.00000000       0.00000000
   Cl          0.50000000       1.50000000       4.50000000       0.00000000       0.00000000       0.00000000       0.00000000       0.00000000       0.00000000
    K          0.00000000       1.00000000       5.00000000       0.00000000       0.00000000       0.00000000       0.00000000       0.00000000       0.00000000
   Cl          0.50000000       1.50000000       5.50000000       0.00000000       0.00000000       0.00000000       0.00000000       0.00000000       0.00000000
    K          0.00000000       2.00000000       0.00000000       0.00000000       0.00000000       0.00000000       0.00000000       0.00000000       0.00000000
   Cl          0.50000000       2.50000000       0.50000000       0.00000000       0.00000000       0.00000000       0.00000000       0.00000000       0.00000000
    K          0.00000000       2.00000000       1.00000000       0.00000000       0.00000000       0.00000000       0.00000000       0.00000000       0.00000000
   Cl          0.50000000       2.50000000       1.50000000       0.00000000       0.00000000       0.00000000       0.00000000       0.00000000       0.00000000
    K          0.00000000       2.00000000       2.00000000       0.00000000       0.00000000       0.00000000       0.00000000       0.00000000       0.00000000
   Cl          0.50000000       2.50000000       2.50000000       0.00000000       0.00000000       0.00000000       0.00000000       0.00000000       0.00000000
    K          0.00000000       2.00000000       3.00000000       0.00000000       0.00000000       0.00000000       0.00000000       0.00000000       0.00000000
   Cl          0.50000000       2.50000000       3.50000000       0.00000000       0.00000000       0.00000000       0.00000000       0.00000000       0.00000000
    K          0.00000000       2.00000000       4.00000000       0.00000000       0.00000000       0.00000000       0.00000000       0.00000000       0.00000000
   Cl          0.50000000       2.50000000       4.50000000       0.00000000       0.00000000       0.00000000       0.00000000       0.00000000       0.00000000
    K          0.00000000       2.00000000       5.00000000       0.00000000       0.00000000       0.00000000       0.00000000       0.00000000       0.00000000
   Cl          0.50000000       2.50000000       5.50000000       0.00000000       0.00000000       0.00000000       0.00000000       0.00000000       0.00000000
    K          0.00000000       3.00000000       0.00000000       0.00000000       0.00000000       0.00000000       0.00000000       0.00000000       0.00000000
   Cl          0.50000000       3.50000000       0.50000000       0.00000000       0.00000000       0.00000000       0.00000000       0.00000000       0.00000000
    K          0.00000000       3.00000000       1.00000000       0.00000000       0.00000000       0.00000000       0.00000000       0.00000000       0.00000000
   Cl          0.50000000       3.50000000       1.50000000       0.00000000       0.00000000       0.00000000       0.00000000       0.00000000       0.00000000
    K          0.00000000       3.00000000       2.00000000       0.00000000       0.00000000       0.00000000       0.00000000       0.00000000       0.00000000
   Cl          0.50000000       3.50000000       2.50000000       0.00000000       0.00000000       0.00000000       0.00000000       0.00000000       0.00000000
    K          0.00000000       3.00000000       3.00000000       0.00000000       0.00000000       0.00000000       0.00000000       0.00000000       0.00000000
   Cl          0.50000000       3.50000000       3.50000000       0.00000000       0.00000000       0.00000000       0.00000000       0.00000000       0.00000000
    K          0.00000000       3.00000000       4.00000000       0.00000000       0.00000000       0.00000000       0.00000000       0.00000000       0.00000000
   Cl          0.50000000       3.50000000       4.50000000       0.00000000       0.00000000       0.00000000       0.00000000       0.00000000       0.00000000
    K          0.00000000       3.00000000       5.00000000       0.00000000       0.00000000       0.00000000       0.00000000       0.00000000       0.00000000
   Cl          0.50000000       3.50000000       5.50000000       0.00000000       0.00000000       0.00000000       0.00000000       0.00000000       0.00000000
    K          0.00000000       4.00000000       0.00000000       0.00000000       0.00000000       0.00000000       0.00000000       0.00000000       0.00000000
   Cl          0.50000000       4.50000000       0.50000000       0.00000000       0.00000000       0.00000000       0.00000000       0.00000000       0.00000000
    K          0.00000000       4.00000000       1.00000000       0.00000000       0.00000000       0.00000000       0.00000000       0.00000000       0.00000000
   Cl          0.50000000       4.50000000       1.50000000       0.00000000       0.00000000       0.00000000       0.00000000       0.00000000       0.00000000
    K          0.00000000       4.00000000       2.00000000       0.00000000       0.00000000       0.00000000       0.00000000       0.00000000       0.00000000
   Cl          0.50000000       4.50000000       2.50000000       0.00000000       0.00000000       0.00000000       0.00000000       0.00000000       0.00000000
    K          0.00000000       4.00000000       3.00000000       0.00000000       0.00000000       0.00000000       0.00000000       0.00000000       0.00000000
   Cl          0.50000000       4.50000000       3.50000000       0.00000000       0.00000000       0.00000000       0.00000000       0.00000000       0.00000000
    K          0.00000000       4.00000000       4.00000000       0.00000000       0.00000000       0.00000000       0.00000000       0.00000000       0.00000000
   Cl          0.50000000       4.50000000       4.50000000       0.00000000       0.00000000       0.00000000       0.00000000       0.00000000       0.00000000
    K          0.00000000       4.00000000       5.00000000       0.00000000       0.00000000       0.00000000       0.00000000       0.00000000       0.00000000
   Cl          0.50000000       4.50000000       5.50000000       0.00000000       0.00000000       0.00000000       0.00000000       0.00000000       0.00000000
    K          0.00000000       5.00000000       0.00000000       0.00000000       0.00000000       0.00000000       0.00000000       0.00000000       0.00000000
   Cl          0.50000000       5.50000000       0.50000000       0.00000000       0.00000000       0.00000000       0.00000000       0.00000000       0.00000000
    K          0.00000000       5.00000000       1.00000000       0.00000000       0.00000000       0.00000000       0.00000000       0.00000000       0.00000000
   Cl          0.50000000       5.50000000       1.50000000       0.00000000       0.00000000       0.00000000       0.00000000       0.00000000       0.00000000
    K          0.00000000       5.00000000       2.00000000       0.00000000       0.00000000       0.00000000       0.00000000       0.00000000       0.00000000
   Cl          0.50000000       5.50000000       2.50000000       0.00000000       0.00000000       0.00000000       0.00000000       0.00000000       0.00000000
    K          0.00000000       5.00000000       3.00000000       0.00000000       0.00000000       0.00000000       0.00000000       0.00000000       0.00000000
   Cl          0.50000000       5.50000000       3.50000000       0.00000000       0.00000000       0.00000000       0.00000000       0.00000000       0.00000000
    K          0.00000000       5.00000000       4.00000000       0.00000000       0.00000000       0.00000000       0.00000000       0.00000000       0.00000000
   Cl          0.50000000       5.50000000       4.50000000       0.00000000       0.00000000       0.00000000       0.00000000       0.00000000       0.00000000
    K          0.00000000       5.00000000       5.00000000       0.00000000       0.00000000       0.00000000       0.00000000       0.00000000       0.00000000
   Cl          0.50000000       5.50000000       5.50000000       0.00000000       0.00000000       0.00000000       0.00000000       0.00000000       0.00000000
    K          1.00000000       0.00000000       0.00000000       0.00000000       0.00000000       0.00000000       0.00000000       0.00000000       0.00000000
   Cl          1.50000000       0.50000000       0.50000000       0.00000000       0.00000000       0.00000000       0.00000000       0.00000000       0.00000000
    K          1.00000000       0.00000000       1.00000000       0.00000000       0.00000000       0.00000000       0.00000000       0.00000000       0.00000000
   Cl          1.50000000       0.50000000       1.50000000       0.00000000       0.00000000       0.00000000       0.00000000       0.00000000       0.00000000
    K          1.00000000       0.00000000       2.00000000       0.00000000       0.00000000       0.00000000       0.00000000       0.00000000       0.00000000
   Cl          1.50000000       0.50000000       2.50000000       0.00000000       0.00000000       0.00000000       0.00000000       0.00000000       0.00000000
    K          1.00000000       0.00000000       3.00000000       0.00000000       0.00000000       0.00000000       0.00000000       0.00000000       0.00000000
   Cl          1.50000000       0.50000000       3.50000000       0.00000000       0.00000000       0.00000000       0.00000000       0.00000000       0.00000000
    K          1.00000000       0.00000000       4.00000000       0.00000000       0.00000000       0.00000000       0.00000000       0.00000000       0.00000000
   Cl          1.50000000       0.50000000       4.50000000       0.00000000       0.00000000       0.00000000       0.00000000       0.00000000       0.00000000
    K          1.00000000       0.00000000       5.00000000       0.00000000       0.00000000       0.00000000       0.00000000       0.00000000       0.00000000
   Cl          1.50000000       0.50000000       5.50000000       0.00000000       0.00000000       0.00000000       0.00000000       0.00000000       0.00000000
    K          1.00000000       1.00000000       0.00000000       0.00000000       0.00000000       0.00000000       0.00000000       0.00000000       0.00000000
   Cl          1.50000000       1.50000000       0.50000000       0.00000000       0.00000000       0.00000000       0.00000000       0.00000000       0.00000000
    K          1.00000000       1.00000000       1.00000000       0.00000000       0.00000000       0.00000000       0.00000000       0.00000000       0.00000000
   Cl          1.50000000       1.50000000       1.50000000       0.00000000       0.00000000       0.00000000       0.00000000       0.00000000       0.00000000
    K          1.00000000       1.00000000       2.00000000       0.00000000       0.00000000       0.00000000       0.00000000       0.00000000       0.00000000
   Cl          1.50000000       1.50000000       2.50000000       0.00000000       0.00000000       0.00000000       0.00000000       0.00000000       0.00000000
    K          1.00000000       1.00000000       3.00000000       0.00000000       0.00000000       0.00000000       0.00000000       0.00000000       0.00000000
   Cl          1.50000000       1.50000000       3.50000000       0.00000000       0.00000000       0.00000000       0.00000000       0.00000000       0.00000000
    K          1.00000000       1.00000000       4.00000000       0.00000000       0.00000000       0.00000000       0.00000000       0.00000000       0.00000000
   Cl          1.50000000       1.50000000       4.50000000       0.00000000       0.00000000       0.00000000       0.00000000       0.00000000       0.00000000
    K          1.00000000       1.00000000       5.00000000       0.00000000       0.00000000       0.00000000       0.00000000       0.00000000       0.00000000
   Cl          1.50000000       1.50000000       5.50000000       0.00000000       0.00000000       0.00000000       0.00000000       0.00000000       0.00000000
    K          1.00000000       2.00000000       0.00000000       0.00000000       0.00000000       0.00000000       0.00000000       0.00000000       0.00000000
   Cl          1.50000000       2.50000000       0.50000000       0.00000000       0.00000000       0.00000000       0.00000000       0.00000000       0.00000000
    K          1.00000000       2.00000000       1.00000000       0.00000000       0.00000000       0.00000000       0.00000000       0.00000000       0.00000000
   Cl          1.50000000       2.50000000       1.50000000       0.00000000       0.00000000       0.00000000       0.00000000       0.00000000       0.00000000
    K          1.00000000       2.00000000       2.00000000       0.00000000       0.00000000       0.00000000       0.00000000       0.00000000       0.00000000
   Cl          1.50000000       2.50000000       2.50000000       0.00000000       0.00000000       0.00000000       0.00000000       0.00000000       0.00000000
    K          1.00000000       2.00000000       3.00000000       0.00000000       0.00000000       0.00000000       0.00000000       0.00000000       0.00000000
   Cl          1.50000000       2.50000000       3.50000000       0.00000000       0.00000000       0.00000000       0.00000000       0.00000000       0.00000000
    K          1.00000000       2.00000000       4.00000000       0.00000000       0.00000000       0.00000000       0.00000000       0.00000000       0.00000000
   Cl          1.50000000       2.50000000       4.50000000       0.00000000       0.00000000       0.00000000       0.00000000       0.00000000       0.00000000
    K          1.00000000       2.00000000       5.00000000       0.00000000       0.00000000       0.00000000       0.00000000       0.00000000       0.00000000
   Cl          1.50000000       2.50000000       5.50000000       0.00000000       0.00000000       0.00000000       0.00000000       0.00000000       0.00000000
    K          1.00000000       3.00000000       0.00000000       0.00000000       0.00000000       0.00000000       0.00000000       0.00000000       0.00000000
   Cl          1.50000000       3.50000000       0.50000000       0.00000000       0.00000000       0.00000000       0.00000000       0.00000000       0.00000000
    K          1.00000000       3.00000000       1.00000000       0.00000000       0.00000000       0.00000000       0.00000000       0.00000000       0.00000000
   Cl          1.50000000       3.50000000       1.50000000       0.00000000       0.00000000       0.00000000       0.00000000       0.00000000       0.00000000
    K          1.00000000       3.00000000       2.00000000       0.00000000       0.00000000       0.00000000       0.00000000       0.00000000       0.00000000
   Cl          1.50000000       3.50000000       2.50000000       0.00000000       0.00000000       0.00000000       0.00000000       0.00000000       0.00000000
    K          1.00000000       3.00000000       3.00000000       0.00000000       0.00000000       0.00000000       0.00000000       0.00000000       0.00000000
   Cl          1.50000000       3.50000000       3.50000000       0.00000000       0.00000000       0.00000000       0.00000000       0.00000000       0.00000000
    K          1.00000000       3.00000000       4.00000000       0.00000000       0.00000000       0.00000000       0.00000000       0.00000000       0.00000000
   Cl          1.50000000       3.50000000       4.50000000       0.00000000       0.00000000       0.00000000       0.00000000       0.00000000       0.00000000
    K          1.00000000       3.00000000       5.00000000       0.00000000       0.00000000       0.00000000       0.00000000       0.00000000       0.00000000
   Cl          1.50000000       3.50000000       5.50000000       0.00000000       0.00000000       0.00000000       0.00000000       0.00000000       0.00000000
    K          1.00000000       4.00000000       0.00000000       0.00000000       0.00000000       0.00000000       0.00000000       0.00000000       0.00000000
   Cl          1.50000000       4.50000000       0.50000000       0.00000000       0.00000000       0.00000000       0.00000000       0.00000000       0.00000000
    K          1.00000000       4.00000000       1.00000000       0.00000000       0.00000000       0.00000000       0.00000000       0.00000000       0.00000000
   Cl          1.50000000       4.50000000       1.50000000       0.00000000       0.00000000       0.00000000       0.00000000       0.00000000       0.00000000
    K          1.00000000       4.00000000       2.00000000       0.00000000       0.00000000       0.00000000       0.00000000       0.00000000       0.00000000
   Cl          1.50000000       4.50000000       2.50000000       0.00000000       0.00000000       0.00000000       0.00000000       0.00000000       0.00000000
    K          1.00000000       4.00000000       3.00000000       0.00000000       0.00000000       0.00000000       0.00000000       0.00000000       0.00000000
   Cl          1.50000000       4.50000000       3.50000000       0.00000000       0.00000000       0.00000000       0.00000000       0.00000000       0.00000000
    K          1.00000000       4.00000000       4.00000000       0.00000000       0.00000000       0.00000000       0.00000000       0.00000000       0.00000000
   Cl          1.50000000       4.50000000       4.50000000       0.00000000       0.00000000       0.00000000       0.00000000       0.00000000       0.00000000
    K          1.00000000       4.00000000       5.00000000       0.00000000       0.00000000       0.00000000       0.00000000       0.00000000       0.00000000
   Cl          1.50000000       4.50000000       5.50000000       0.00000000       0.00000000       0.00000000       0.00000000       0.00000000       0.00000000
    K          1.00000000       5.00000000       0.00000000       0.00000000       0.00000000       0.00000000       0.00000000       0.00000000       0.00000000
   Cl          1.50000000       5.50000000       0.50000000       0.00000000       0.00000000       0.00000000       0.00000000       0.00000000       0.00000000
    K          1.00000000       5.00000000       1.00000000       0.00000000       0.00000000       0.00000000       0.00000000       0.00000000       0.00000000
   Cl          1.50000000       5.50000000       1.50000000       0.00000000       0.00000000       0.00000000       0.00000000       0.00000000       0.00000000
    K          1.00000000       5.00000000       2.00000000       0.00000000       0.00000000       0.00000000       0.00000000       0.00000000       0.00000000
   Cl          1.50000000       5.50000000       2.50000000       0.00000000       0.00000000       0.00000000       0.00000000       0.00000000       0.00000000
    K          1.00000000       5.00000000       3.00000000       0.00000000       0.00000000       0.00000000       0.00000000       0.00000000       0.00000000
   Cl          1.50000000       5.50000000       3.50000000       0.00000000       0.00000000       0.00000000       0.00000000       0.00000000       0.00000000
    K          1.00000000       5.00000000       4.00000000       0.00000000       0.00000000       0.00000000       0.00000000       0.00000000       0.00000000
   Cl          1.50000000       5.50000000       4.50000000       0.00000000       0.00000000       0.00000000       0.00000000       0.00000000       0.00000000
    K          1.00000000       5.00000000       5.00000000       0.00000000       0.00000000       0.00000000       0.00000000       0.00000000       0.00000000
   Cl          1.50000000       5.50000000       5.50000000       0.00000000       0.00000000       0.00000000       0.00000000       0.00000000       0.00000000
    K          2.00000000       0.00000000       0.00000000       0.00000000       0.00000000       0.00000000       0.00000000       0.00000000       0.00000000
   Cl          2.50000000       0.50000000       0.50000000       0.00000000       0.00000000       0.00000000       0.00000000       0.00000000       0.00000000
    K          2.00000000       0.00000000       1.00000000       0.00000000       0.00000000       0.00000000       0.00000000       0.00000000       0.00000000
   Cl          2.50000000       0.50000000       1.50000000       0.00000000       0.00000000       0.00000000       0.00000000       0.00000000       0.00000000
    K          2.00000000       0.00000000       2.00000000       0.00000000       0.00000000       0.00000000       0.00000000       0.00000000       0.00000000
   Cl          2.50000000       0.50000000       2.50000000       0.00000000       0.00000000       0.00000000       0.00000000       0.00000000       0.00000000
    K          2.00000000       0.00000000       3.00000000       0.00000000       0.00000000       0.00000000       0.00000000       0.00000000       0.00000000
   Cl          2.50000000       0.50000000       3.50000000       0.00000000       0.00000000       0.00000000       0.00000000       0.00000000       0.00000000
    K          2.00000000       0.00000000       4.00000000       0.00000000       0.00000000       0.00000000       0.00000000       0.00000000       0.00000000
   Cl          2.50000000       0.50000000       4.50000000       0.00000000       0.00000000       0.00000000       0.00000000       0.00000000       0.00000000
    K          2.00000000       0.00000000       5.00000000       0.00000000       0.00000000       0.00000000       0.00000000       0.00000000       0.00000000
   Cl          2.50000000       0.50000000       5.50000000       0.00000000       0.00000000       0.00000000       0.00000000       0.00000000       0.00000000
    K          2.00000000       1.00000000       0.00000000       0.00000000       0.00000000       0.00000000       0.00000000       0.00000000       0.00000000
   Cl          2.50000000       1.50000000       0.50000000       0.00000000       0.00000000       0.00000000       0.00000000       0.00000000       0.00000000
    K          2.00000000       1.00000000       1.00000000       0.00000000       0.00000000       0.00000000       0.00000000       0.00000000       0.00000000
   Cl          2.50000000       1.50000000       1.50000000       0.00000000       0.00000000       0.00000000       0.00000000       0.00000000       0.00000000
    K          2.00000000       1.00000000       2.00000000       0.00000000       0.00000000       0.00000000       0.00000000       0.00000000       0.00000000
   Cl          2.50000000       1.50000000       2.50000000       0.00000000       0.00000000       0.00000000       0.00000000       0.00000000       0.00000000
    K          2.00000000       1.00000000       3.00000000       0.00000000       0.00000000       0.00000000       0.00000000       0.00000000       0.00000000
   Cl          2.50000000       1.50000000       3.50000000       0.00000000       0.00000000       0.00000000       0.00000000       0.00000000       0.00000000
    K          2.00000000       1.00000000       4.00000000       0.00000000       0.00000000       0.00000000       0.00000000       0.00000000       0.00000000
   Cl          2.50000000       1.50000000       4.50000000       0.00000000       0.00000000       0.00000000       0.00000000       0.00000000       0.00000000
    K          2.00000000       1.00000000       5.00000000       0.00000000       0.00000000       0.00000000       0.00000000       0.00000000       0.00000000
   Cl          2.50000000       1.50000000       5.50000000       0.00000000       0.00000000       0.00000000       0.00000000       0.00000000       0.00000000
    K          2.00000000       2.00000000       0.00000000       0.00000000       0.00000000       0.00000000       0.00000000       0.00000000       0.00000000
   Cl          2.50000000       2.50000000       0.50000000       0.00000000       0.00000000       0.00000000       0.00000000       0.00000000       0.00000000
    K          2.00000000       2.00000000       1.00000000       0.00000000       0.00000000       0.00000000       0.00000000       0.00000000       0.00000000
   Cl          2.50000000       2.50000000       1.50000000       0.00000000       0.00000000       0.00000000       0.00000000       0.00000000       0.00000000
    K          2.00000000       2.00000000       2.00000000       0.00000000       0.00000000       0.00000000       0.00000000       0.00000000       0.00000000
   Cl          2.50000000       2.50000000       2.50000000       0.00000000       0.00000000       0.00000000       0.00000000       0.00000000       0.00000000
    K          2.00000000       2.00000000       3.00000000       0.00000000       0.00000000       0.00000000       0.00000000       0.00000000       0.00000000
   Cl          2.50000000       2.50000000       3.50000000       0.00000000       0.00000000       0.00000000       0.00000000       0.00000000       0.00000000
    K          2.00000000       2.00000000       4.00000000       0.00000000       0.00000000       0.00000000       0.00000000       0.00000000       0.00000000
   Cl          2.50000000       2.50000000       4.50000000       0.00000000       0.00000000       0.00000000       0.00000000       0.00000000       0.00000000
    K          2.00000000       2.00000000       5.00000000       0.00000000       0.00000000       0.00000000       0.00000000       0.00000000       0.00000000
   Cl          2.50000000       2.50000000       5.50000000       0.00000000       0.00000000       0.00000000       0.00000000       0.00000000       0.00000000
    K          2.00000000       3.00000000       0.00000000       0.00000000       0.00000000       0.00000000       0.00000000       0.00000000       0.00000000
   Cl          2.50000000       3.50000000       0.50000000       0.00000000       0.00000000       0.00000000       0.00000000       0.00000000       0.00000000
    K          2.00000000       3.00000000       1.00000000       0.00000000       0.00000000       0.00000000       0.00000000       0.00000000       0.00000000