432
   time=   0.000000 (fs)  Energy=  0.000000 (eV)
BOX        13.54164357       7.81827156      22.11341135      13.54164357      23.45481468       0.00000000      27.08328714       0.00000000       0.00000000
    K          0.00000000       0.00000000       0.00000000       0.00000000       0.00000000       0.00000000       0.00000000       0.00000000       0.00000000
   Cl          2.25694060       2.25694060       2.25694060       0.00000000       0.00000000       0.00000000       0.00000000       0.00000000       0.00000000
    K          0.00000000       0.00000000       4.51388119       0.00000000       0.00000000       0.00000000       0.00000000       0.00000000       0.00000000
   Cl          2.25694060       2.25694060       6.77082179       0.00000000       0.00000000       0.00000000       0.00000000       0.00000000       0.00000000
    K          0.00000000       0.00000000       9.02776238       0.00000000       0.00000000       0.00000000       0.00000000       0.00000000       0.00000000
   Cl          2.25694060       2.25694060      11.28470298       0.00000000       0.00000000       0.00000000       0.00000000       0.00000000       0.00000000
    K          0.00000000       0.00000000      13.54164357       0.00000000       0.00000000       0.00000000       0.00000000       0.00000000       0.00000000
   Cl          2.25694060       2.25694060      15.79858417       0.00000000       0.00000000       0.00000000       0.00000000       0.00000000       0.00000000
    K          0.00000000       0.00000000      18.05552476       0.00000000       0.00000000       0.00000000       0.00000000       0.00000000       0.00000000
   Cl          2.25694060       2.25694060      20.31246536       0.00000000       0.00000000       0.00000000       0.00000000       0.00000000       0.00000000
    K          0.00000000       0.00000000      22.56940595       0.00000000       0.00000000       0.00000000       0.00000000       0.00000000       0.00000000
   Cl          2.25694060       2.25694060      24.82634654       0.00000000       0.00000000       0.00000000       0.00000000       0.00000000       0.00000000
    K          0.00000000       4.51388119       0.00000000       0.00000000       0.00000000       0.00000000       0.00000000       0.00000000       0.00000000
   Cl          2.25694060       6.77082179       2.25694060       0.00000000       0.00000000       0.00000000       0.00000000       0.00000000       0.00000000
    K          0.00000000       4.51388119       4.51388119       0.00000000       0.00000000       0.00000000       0.00000000       0.00000000       0.00000000
   Cl          2.25694060       6.77082179       6.77082179       0.00000000       0.00000000       0.00000000       0.00000000       0.00000000       0.00000000
    K          0.00000000       4.51388119       9.02776238       0.00000000       0.00000000       0.00000000       0.00000000       0.00000000       0.00000000
   Cl          2.25694060       6.77082179      11.28470298       0.00000000       0.00000000       0.00000000       0.00000000       0.00000000       0.00000000
    K          0.00000000       4.51388119      13.54164357       0.00000000       0.00000000       0.00000000       0.00000000       0.00000000       0.00000000
   Cl          2.25694060       6.77082179      15.79858417       0.00000000       0.00000000       0.00000000       0.00000000       0.00000000       0.00000000
    K          0.00000000       4.51388119      18.05552476       0.00000000       0.00000000       0.00000000       0.00000000       0.00000000       0.00000000
   Cl          2.25694060       6.77082179      20.31246536       0.00000000       0.00000000       0.00000000       0.00000000       0.00000000       0.00000000
    K          0.00000000       4.51388119      22.56940595       0.00000000       0.00000000       0.00000000       0.00000000       0.00000000       0.00000000
   Cl          2.25694060       6.77082179      24.82634654       0.00000000       0.00000000       0.00000000       0.00000000       0.00000000       0.00000000
    K          0.00000000       9.02776238       0.00000000       0.00000000       0.00000000       0.00000000       0.00000000       0.00000000       0.00000000
   Cl          2.25694060      11.28470298       2.25694060       0.00000000       0.00000000       0.00000000       0.00000000       0.00000000       0.00000000
    K          0.00000000       9.02776238       4.51388119       0.00000000       0.00000000       0.00000000       0.00000000       0.00000000       0.00000000
   Cl          2.25694060      11.28470298       6.77082179       0.00000000       0.00000000       0.00000000       0.00000000       0.00000000       0.00000000
    K          0.00000000       9.02776238       9.02776238       0.00000000       0.00000000       0.00000000       0.00000000       0.00000000       0.00000000
   Cl          2.25694060      11.28470298      11.28470298       0.00000000       0.00000000       0.00000000       0.00000000       0.00000000       0.00000000
    K          0.00000000       9.02776238      13.54164357       0.00000000       0.00000000       0.00000000       0.00000000       0.00000000       0.00000000
   Cl          2.25694060      11.28470298      15.79858417       0.00000000       0.00000000       0.00000000       0.00000000       0.00000000       0.00000000
    K          0.00000000       9.02776238      18.05552476       0.00000000       0.00000000       0.00000000       0.00000000       0.00000000       0.00000000
   Cl          2.25694060      11.28470298      20.31246536       0.00000000       0.00000000       0.00000000       0.00000000       0.00000000       0.00000000
    K          0.00000000       9.02776238      22.56940595       0.00000000       0.00000000       0.00000000       0.00000000       0.00000000       0.00000000
   Cl          2.25694060      11.28470298      24.82634654       0.00000000       0.00000000       0.00000000       0.00000000       0.00000000       0.00000000
    K          0.00000000      13.54164357       0.00000000       0.00000000       0.00000000       0.00000000       0.00000000       0.00000000       0.00000000
   Cl          2.25694060      15.79858417       2.25694060       0.00000000       0.00000000       0.00000000       0.00000000       0.00000000       0.00000000
    K          0.00000000      13.54164357       4.51388119       0.00000000       0.00000000       0.00000000       0.00000000       0.00000000       0.00000000
   Cl          2.25694060      15.79858417       6.77082179       0.00000000       0.00000000       0.00000000       0.00000000       0.00000000       0.00000000
    K          0.00000000      13.54164357       9.02776238       0.00000000       0.00000000       0.00000000       0.00000000       0.00000000       0.00000000
   Cl          2.25694060      15.79858417      11.28470298       0.00000000       0.00000000       0.00000000       0.00000000       0.00000000       0.00000000
    K          0.00000000      13.54164357      13.54164357       0.00000000       0.00000000       0.00000000       0.00000000       0.00000000       0.00000000
   Cl          2.25694060      15.79858417      15.79858417       0.00000000       0.00000000       0.00000000       0.00000000       0.00000000       0.00000000
    K          0.00000000      13.54164357      18.05552476       0.00000000       0.00000000       0.00000000       0.00000000       0.00000000       0.00000000
   Cl          2.25694060      15.79858417      20.31246536       0.00000000       0.00000000       0.00000000       0.00000000       0.00000000       0.00000000
    K          0.00000000      13.54164357      22.56940595       0.00000000       0.00000000       0.00000000       0.00000000       0.00000000       0.00000000
   Cl          2.25694060      15.79858417      24.82634654       0.00000000       0.00000000       0.00000000       0.00000000       0.00000000       0.00000000
    K          0.00000000      18.05552476       0.00000000       0.00000000       0.00000000       0.00000000       0.00000000       0.00000000       0.00000000
   Cl          2.25694060      20.31246536       2.25694060       0.00000000       0.00000000       0.00000000       0.00000000       0.00000000       0.00000000
    K          0.00000000      18.05552476       4.51388119       0.00000000       0.00000000       0.00000000       0.00000000       0.00000000       0.00000000
   Cl          2.25694060      20.31246536       6.77082179       0.00000000       0.00000000       0.00000000       0.00000000       0.00000000       0.00000000
    K          0.00000000      18.05552476       9.02776238       0.00000000       0.00000000       0.00000000       0.00000000       0.00000000       0.00000000
   Cl          2.25694060      20.31246536      11.28470298       0.00000000       0.00000000       0.00000000       0.00000000       0.00000000       0.00000000
    K          0.00000000      18.05552476      13.54164357       0.00000000       0.00000000       0.00000000       0.00000000       0.00000000       0.00000000
   Cl          2.25694060      20.31246536      15.79858417       0.00000000       0.00000000       0.00000000       0.00000000       0.00000000       0.00000000
    K          0.00000000      18.05552476      18.05552476       0.00000000       0.00000000       0.00000000       0.00000000       0.00000000       0.00000000
   Cl          2.25694060      20.31246536      20.31246536       0.00000000       0.00000000       0.00000000       0.00000000       0.00000000       0.00000000
    K          0.00000000      18.05552476      22.56940595       0.00000000       0.00000000       0.00000000       0.00000000       0.00000000       0.00000000
   Cl          2.25694060      20.31246536      24.82634654       0.00000000       0.00000000       0.00000000       0.00000000       0.00000000       0.00000000
    K          0.00000000      22.56940595       0.00000000       0.00000000       0.00000000       0.00000000       0.00000000       0.00000000       0.00000000
   Cl          2.25694060      24.82634654       2.25694060       0.00000000       0.00000000       0.00000000       0.00000000       0.00000000       0.00000000
    K          0.00000000      22.56940595       4.51388119       0.00000000       0.00000000       0.00000000       0.00000000       0.00000000       0.00000000
   Cl          2.25694060      24.82634654       6.77082179       0.00000000       0.00000000       0.00000000       0.00000000       0.00000000       0.00000000
    K          0.00000000      22.56940595       9.02776238       0.00000000       0.00000000       0.00000000       0.00000000       0.00000000       0.00000000
   Cl          2.25694060      24.82634654      11.28470298       0.00000000       0.00000000       0.00000000       0.00000000       0.00000000       0.00000000
    K          0.00000000      22.56940595      13.54164357       0.00000000       0.00000000       0.00000000       0.00000000       0.00000000       0.00000000
   Cl          2.25694060      24.82634654      15.79858417       0.00000000       0.00000000       0.00000000       0.00000000       0.00000000       0.00000000
    K          0.00000000      22.56940595      18.05552476       0.00000000       0.00000000       0.00000000       0.00000000       0.00000000       0.00000000
   Cl          2.25694060      24.82634654      20.31246536       0.00000000       0.00000000       0.00000000       0.00000000       0.00000000       0.00000000
    K          0.00000000      22.56940595      22.56940595       0.00000000       0.00000000       0.00000000       0.00000000       0.00000000       0.00000000
   Cl          2.25694060      24.82634654      24.82634654       0.00000000       0.00000000       0.00000000       0.00000000       0.00000000       0.00000000
    K          4.51388119       0.00000000       0.00000000       0.00000000       0.00000000       0.00000000       0.00000000       0.00000000       0.00000000
   Cl          6.77082179       2.25694060       2.25694060       0.00000000       0.00000000       0.00000000       0.00000000       0.00000000       0.00000000
    K          4.51388119       0.00000000       4.51388119       0.00000000       0.00000000       0.00000000       0.00000000       0.00000000       0.00000000
   Cl          6.77082179       2.25694060       6.77082179       0.00000000       0.00000000       0.00000000       0.00000000       0.00000000       0.00000000
    K          4.51388119       0.00000000       9.02776238       0.00000000       0.00000000       0.00000000       0.00000000       0.00000000       0.00000000
   Cl          6.77082179       2.25694060      11.28470298       0.00000000       0.00000000       0.00000000       0.00000000       0.00000000       0.00000000
    K          4.51388119       0.00000000      13.54164357       0.00000000       0.00000000       0.00000000       0.00000000       0.00000000       0.00000000
   Cl          6.77082179       2.25694060      15.79858417       0.00000000       0.00000000       0.00000000       0.00000000       0.00000000       0.00000000
    K          4.51388119       0.00000000      18.05552476       0.00000000       0.00000000       0.00000000       0.00000000       0.00000000       0.00000000
   Cl          6.77082179       2.25694060      20.31246536       0.00000000       0.00000000       0.00000000       0.00000000       0.00000000       0.00000000
    K          4.51388119       0.00000000      22.56940595       0.00000000       0.00000000       0.00000000       0.00000000       0.00000000       0.00000000
   Cl          6.77082179       2.25694060      24.82634654       0.00000000       0.00000000       0.00000000       0.00000000       0.00000000       0.00000000
    K          4.51388119       4.51388119       0.00000000       0.00000000       0.00000000       0.00000000       0.00000000       0.00000000       0.00000000
   Cl          6.77082179       6.77082179       2.25694060       0.00000000       0.00000000       0.00000000       0.00000000       0.00000000       0.00000000
    K          4.51388119       4.51388119       4.51388119       0.00000000       0.00000000       0.00000000       0.00000000       0.00000000       0.00000000
   Cl          6.77082179       6.77082179       6.77082179       0.00000000       0.00000000       0.00000000       0.00000000       0.00000000       0.00000000
    K          4.51388119       4.51388119       9.02776238       0.00000000       0.00000000       0.00000000       0.00000000       0.00000000       0.00000000
   Cl          6.77082179       6.77082179      11.28470298       0.00000000       0.00000000       0.00000000       0.00000000       0.00000000       0.00000000
    K          4.51388119       4.51388119      13.54164357       0.00000000       0.00000000       0.00000000       0.00000000       0.00000000       0.00000000
   Cl          6.77082179       6.77082179      15.79858417       0.00000000       0.00000000       0.00000000       0.00000000       0.00000000       0.00000000
    K          4.51388119       4.51388119      18.05552476       0.00000000       0.00000000       0.00000000       0.00000000       0.00000000       0.00000000
   Cl          6.77082179       6.77082179      20.31246536       0.00000000       0.00000000       0.00000000       0.00000000       0.00000000       0.00000000
    K          4.51388119       4.51388119      22.56940595       0.00000000       0.00000000       0.00000000       0.00000000       0.00000000       0.00000000
   Cl          6.77082179       6.77082179      24.82634654       0.00000000       0.00000000       0.00000000       0.00000000       0.00000000       0.00000000
    K          4.51388119       9.02776238       0.00000000       0.00000000       0.00000000       0.00000000       0.00000000       0.00000000       0.00000000
   Cl          6.77082179      11.28470298       2.25694060       0.00000000       0.00000000       0.00000000       0.00000000       0.00000000       0.00000000
    K          4.51388119       9.02776238       4.51388119       0.00000000       0.00000000       0.00000000       0.00000000       0.00000000       0.00000000
   Cl          6.77082179      11.28470298       6.77082179       0.00000000       0.00000000       0.00000000       0.00000000       0.00000000       0.00000000
    K          4.51388119       9.02776238       9.02776238       0.00000000       0.00000000       0.00000000       0.00000000       0.00000000       0.00000000
   Cl          6.77082179      11.28470298      11.28470298       0.00000000       0.00000000       0.00000000       0.00000000       0.00000000       0.00000000
    K          4.51388119       9.02776238      13.54164357       0.00000000       0.00000000       0.00000000       0.00000000       0.00000000       0.00000000
   Cl          6.77082179      11.28470298      15.79858417       0.00000000       0.00000000       0.00000000       0.00000000       0.00000000       0.00000000
    K          4.51388119       9.02776238      18.05552476       0.00000000       0.00000000       0.00000000       0.00000000       0.00000000       0.00000000
   Cl          6.77082179      11.28470298      20.31246536       0.00000000       0.00000000       0.00000000       0.00000000       0.00000000       0.00000000
    K          4.51388119       9.02776238      22.56940595       0.00000000       0.00000000       0.00000000       0.00000000       0.00000000       0.00000000
   Cl          6.77082179      11.28470298      24.82634654       0.00000000       0.00000000       0.00000000       0.00000000       0.00000000       0.00000000
    K          4.51388119      13.54164357       0.00000000       0.00000000       0.00000000       0.00000000       0.00000000       0.00000000       0.00000000
   Cl          6.77082179      15.79858417       2.25694060       0.00000000       0.00000000       0.00000000       0.00000000       0.00000000       0.00000000
    K          4.51388119      13.54164357       4.51388119       0.00000000       0.00000000       0.00000000       0.00000000       0.00000000       0.00000000
   Cl          6.77082179      15.79858417       6.77082179       0.00000000       0.00000000       0.00000000       0.00000000       0.00000000       0.00000000
    K          4.51388119      13.54164357       9.02776238       0.00000000       0.00000000       0.00000000       0.00000000       0.00000000       0.00000000
   Cl          6.77082179      15.79858417      11.28470298       0.00000000       0.00000000       0.00000000       0.00000000       0.00000000       0.00000000
    K          4.51388119      13.54164357      13.54164357       0.00000000       0.00000000       0.00000000       0.00000000       0.00000000       0.00000000
   Cl          6.77082179      15.79858417      15.79858417       0.00000000       0.00000000       0.00000000       0.00000000       0.00000000       0.00000000
    K          4.51388119      13.54164357      18.05552476       0.00000000       0.00000000       0.00000000       0.00000000       0.00000000       0.00000000
   Cl          6.77082179      15.79858417      20.31246536       0.00000000       0.00000000       0.00000000       0.00000000       0.00000000       0.00000000
    K          4.51388119      13.54164357      22.56940595       0.00000000       0.00000000       0.00000000       0.00000000       0.00000000       0.00000000
   Cl          6.77082179      15.79858417      24.82634654       0.00000000       0.00000000       0.00000000       0.00000000       0.00000000       0.00000000
    K          4.51388119      18.05552476       0.00000000       0.00000000       0.00000000       0.00000000       0.00000000       0.00000000       0.00000000
   Cl          6.77082179      20.31246536       2.25694060       0.00000000       0.00000000       0.00000000       0.00000000       0.00000000       0.00000000
    K          4.51388119      18.05552476       4.51388119       0.00000000       0.00000000       0.00000000       0.00000000       0.00000000       0.00000000
   Cl          6.77082179      20.31246536       6.77082179       0.00000000       0.00000000       0.00000000       0.00000000       0.00000000       0.00000000
    K          4.51388119      18.05552476       9.02776238       0.00000000       0.00000000       0.00000000       0.00000000       0.00000000       0.00000000
   Cl          6.77082179      20.31246536      11.28470298       0.00000000       0.00000000       0.00000000       0.00000000       0.00000000       0.00000000
    K          4.51388119      18.05552476      13.54164357       0.00000000       0.00000000       0.00000000       0.00000000       0.00000000       0.00000000
   Cl          6.77082179      20.31246536      15.79858417       0.00000000       0.00000000       0.00000000       0.00000000       0.00000000       0.00000000
    K          4.51388119      18.05552476      18.05552476       0.00000000       0.00000000       0.00000000       0.00000000       0.00000000       0.00000000
   Cl          6.77082179      20.31246536      20.31246536       0.00000000       0.00000000       0.00000000       0.00000000       0.00000000       0.00000000
    K          4.51388119      18.05552476      22.56940595       0.00000000       0.00000000       0.00000000       0.00000000       0.00000000       0.00000000
   Cl          6.77082179      20.31246536      24.82634654       0.00000000       0.00000000       0.00000000       0.00000000       0.00000000       0.00000000
    K          4.51388119      22.56940595       0.00000000       0.00000000       0.00000000       0.00000000       0.00000000       0.00000000       0.00000000
   Cl          6.77082179      24.82634654       2.25694060       0.00000000       0.00000000       0.00000000       0.00000000       0.00000000       0.00000000
    K          4.51388119      22.56940595       4.51388119       0.00000000       0.00000000       0.00000000       0.00000000       0.00000000       0.00000000
   Cl          6.77082179      24.82634654       6.77082179       0.00000000       0.00000000       0.00000000       0.00000000       0.00000000       0.00000000
    K          4.51388119      22.56940595       9.02776238       0.00000000       0.00000000       0.00000000       0.00000000       0.00000000       0.00000000
   Cl          6.77082179      24.82634654      11.28470298       0.00000000       0.00000000       0.00000000       0.00000000       0.00000000       0.00000000
    K          4.51388119      22.56940595      13.54164357       0.00000000       0.00000000       0.00000000       0.00000000       0.00000000       0.00000000
   Cl          6.77082179      24.82634654      15.79858417       0.00000000       0.00000000       0.00000000       0.00000000       0.00000000       0.00000000
    K          4.51388119      22.56940595      18.05552476       0.00000000       0.00000000       0.00000000       0.00000000       0.00000000       0.00000000
   Cl          6.77082179      24.82634654      20.31246536       0.00000000       0.00000000       0.00000000       0.00000000       0.00000000       0.00000000
    K          4.51388119      22.56940595      22.56940595       0.00000000       0.00000000       0.00000000       0.00000000       0.00000000       0.00000000
   Cl          6.77082179      24.82634654      24.82634654       0.00000000       0.00000000       0.00000000       0.00000000       0.00000000       0.00000000
    K          9.02776238       0.00000000       0.00000000       0.00000000       0.00000000       0.00000000       0.00000000       0.00000000       0.00000000
   Cl         11.28470298       2.25694060       2.25694060       0.00000000       0.00000000       0.00000000       0.00000000       0.00000000       0.00000000
    K          9.02776238       0.00000000       4.51388119       0.00000000       0.00000000       0.00000000       0.00000000       0.00000000       0.00000000
   Cl         11.28470298       2.25694060       6.77082179       0.00000000       0.00000000       0.00000000       0.00000000       0.00000000       0.00000000
    K          9.02776238       0.00000000       9.02776238       0.00000000       0.00000000       0.00000000       0.00000000       0.00000000       0.00000000
   Cl         11.28470298       2.25694060      11.28470298       0.00000000       0.00000000       0.00000000       0.00000000       0.00000000       0.00000000
    K          9.02776238       0.00000000      13.54164357       0.00000000       0.00000000       0.00000000       0.00000000       0.00000000       0.00000000
   Cl         11.28470298       2.25694060      15.79858417       0.00000000       0.00000000       0.00000000       0.00000000       0.00000000       0.00000000
    K          9.02776238       0.00000000      18.05552476       0.00000000       0.00000000       0.00000000       0.00000000       0.00000000       0.00000000
   Cl         11.28470298       2.25694060      20.31246536       0.00000000       0.00000000       0.00000000       0.00000000       0.00000000       0.00000000
    K          9.02776238       0.00000000      22.56940595       0.00000000       0.00000000       0.00000000       0.00000000       0.00000000       0.00000000
   Cl         11.28470298       2.25694060      24.82634654       0.00000000       0.00000000       0.00000000       0.00000000       0.00000000       0.00000000
    K          9.02776238       4.51388119       0.00000000       0.00000000       0.00000000       0.00000000       0.00000000       0.00000000       0.00000000
   Cl         11.28470298       6.77082179       2.25694060       0.00000000       0.00000000       0.00000000       0.00000000       0.00000000       0.00000000
    K          9.02776238       4.51388119       4.51388119       0.00000000       0.00000000       0.00000000       0.00000000       0.00000000       0.00000000
   Cl         11.28470298       6.77082179       6.77082179       0.00000000       0.00000000       0.00000000       0.00000000       0.00000000       0.00000000
    K          9.02776238       4.51388119       9.02776238       0.00000000       0.00000000       0.00000000       0.00000000       0.00000000       0.00000000
   Cl         11.28470298       6.77082179      11.28470298       0.00000000       0.00000000       0.00000000       0.00000000       0.00000000       0.00000000
    K          9.02776238       4.51388119      13.54164357       0.00000000       0.00000000       0.00000000       0.00000000       0.00000000       0.00000000
   Cl         11.28470298       6.77082179      15.79858417       0.00000000       0.00000000       0.00000000       0.00000000       0.00000000       0.00000000
    K          9.02776238       4.51388119      18.05552476       0.00000000       0.00000000       0.00000000       0.00000000       0.00000000       0.00000000
   Cl         11.28470298       6.77082179      20.31246536       0.00000000       0.00000000       0.00000000       0.00000000       0.00000000       0.00000000
    K          9.02776238       4.51388119      22.56940595       0.00000000       0.00000000       0.00000000       0.00000000       0.00000000       0.00000000
   Cl         11.28470298       6.77082179      24.82634654       0.00000000       0.00000000       0.00000000       0.00000000       0.00000000       0.00000000
    K          9.02776238       9.02776238       0.00000000       0.00000000       0.00000000       0.00000000       0.00000000       0.00000000       0.00000000
   Cl         11.28470298      11.28470298       2.25694060       0.00000000       0.00000000       0.00000000       0.00000000       0.00000000       0.00000000
    K          9.02776238       9.02776238       4.51388119       0.00000000       0.00000000       0.00000000       0.00000000       0.00000000       0.00000000
   Cl         11.28470298      11.28470298       6.77082179       0.00000000       0.00000000       0.00000000       0.00000000       0.00000000       0.00000000
    K          9.02776238       9.02776238       9.02776238       0.00000000       0.00000000       0.00000000       0.00000000       0.00000000       0.00000000
   Cl         11.28470298      11.28470298      11.28470298       0.00000000       0.00000000       0.00000000       0.00000000       0.00000000       0.00000000
    K          9.02776238       9.02776238      13.54164357       0.00000000       0.00000000       0.00000000       0.00000000       0.00000000       0.00000000
   Cl         11.28470298      11.28470298      15.79858417       0.00000000       0.00000000       0.00000000       0.00000000       0.00000000       0.00000000
    K          9.02776238       9.02776238      18.05552476       0.00000000       0.00000000       0.00000000       0.00000000       0.00000000       0.00000000
   Cl         11.28470298      11.28470298      20.31246536       0.00000000       0.00000000       0.00000000       0.00000000       0.00000000       0.00000000
    K          9.02776238       9.02776238      22.56940595       0.00000000       0.00000000       0.00000000       0.00000000       0.00000000       0.00000000
   Cl         11.28470298      11.28470298      24.82634654       0.00000000       0.00000000       0.00000000       0.00000000       0.00000000       0.00000000
    K          9.02776238      13.54164357       0.00000000       0.00000000       0.00000000       0.00000000       0.00000000       0.00000000       0.00000000
   Cl         11.28470298      15.79858417       2.25694060       0.00000000       0.00000000       0.00000000       0.00000000       0.00000000       0.00000000
    K          9.02776238      13.54164357       4.51388119       0.00000000       0.00000000       0.00000000       0.00000000       0.00000000       0.00000000