432
   time=   0.000000 (fs)  Energy=  0.000000 (eV)
BOX        27.08328714      13.54164357      13.54164357       0.00000000      23.45481468       7.81827156       0.00000000       0.00000000      22.11341135
    K          0.00000000       0.00000000       0.00000000       0.00000000       0.00000000       0.00000000       0.00000000       0.00000000       0.00000000
   Cl          4.51388119       2.60609052       1.84278428       0.00000000       0.00000000       0.00000000       0.00000000       0.00000000       0.00000000
    K          2.25694060       1.30304526       3.68556856       0.00000000       0.00000000       0.00000000       0.00000000       0.00000000       0.00000000
   Cl          6.77082179       3.90913578       5.52835284       0.00000000       0.00000000       0.00000000       0.00000000       0.00000000       0.00000000
    K          4.51388119       2.60609052       7.37113712       0.00000000       0.00000000       0.00000000       0.00000000       0.00000000       0.00000000
   Cl          9.02776238       5.21218104       9.21392140       0.00000000       0.00000000       0.00000000       0.00000000       0.00000000       0.00000000
    K          6.77082179       3.90913578      11.05670568       0.00000000       0.00000000       0.00000000       0.00000000       0.00000000       0.00000000
   Cl         11.28470298       6.51522630      12.89948995       0.00000000       0.00000000       0.00000000       0.00000000       0.00000000       0.00000000
    K          9.02776238       5.21218104      14.74227423       0.00000000       0.00000000       0.00000000       0.00000000       0.00000000       0.00000000
   Cl         13.54164357       7.81827156      16.58505851       0.00000000       0.00000000       0.00000000       0.00000000       0.00000000       0.00000000
    K         11.28470298       6.51522630      18.42784279       0.00000000       0.00000000       0.00000000       0.00000000       0.00000000       0.00000000
   Cl         15.79858417       9.12131682      20.27062707       0.00000000       0.00000000       0.00000000       0.00000000       0.00000000       0.00000000
    K          2.25694060       3.90913578       0.00000000       0.00000000       0.00000000       0.00000000       0.00000000       0.00000000       0.00000000
   Cl          6.77082179       6.51522630       1.84278428       0.00000000       0.00000000       0.00000000       0.00000000       0.00000000       0.00000000
    K          4.51388119       5.21218104       3.68556856       0.00000000       0.00000000       0.00000000       0.00000000       0.00000000       0.00000000
   Cl          9.02776238       7.81827156       5.52835284       0.00000000       0.00000000       0.00000000       0.00000000       0.00000000       0.00000000
    K          6.77082179       6.51522630       7.37113712       0.00000000       0.00000000       0.00000000       0.00000000       0.00000000       0.00000000
   Cl         11.28470298       9.12131682       9.21392140       0.00000000       0.00000000       0.00000000       0.00000000       0.00000000       0.00000000
    K          9.02776238       7.81827156      11.05670568       0.00000000       0.00000000       0.00000000       0.00000000       0.00000000       0.00000000
   Cl         13.54164357      10.42436208      12.89948995       0.00000000       0.00000000       0.00000000       0.00000000       0.00000000       0.00000000
    K         11.28470298       9.12131682      14.74227423       0.00000000       0.00000000       0.00000000       0.00000000       0.00000000       0.00000000
   Cl         15.79858417      11.72740734      16.58505851       0.00000000       0.00000000       0.00000000       0.00000000       0.00000000       0.00000000
    K         13.54164357      10.42436208      18.42784279       0.00000000       0.00000000       0.00000000       0.00000000       0.00000000       0.00000000
   Cl         18.05552476      13.03045260      20.27062707       0.00000000       0.00000000       0.00000000       0.00000000       0.00000000       0.00000000
    K          4.51388119       7.81827156       0.00000000       0.00000000       0.00000000       0.00000000       0.00000000       0.00000000       0.00000000
   Cl          9.02776238      10.42436208       1.84278428       0.00000000       0.00000000       0.00000000       0.00000000       0.00000000       0.00000000
    K          6.77082179       9.12131682       3.68556856       0.00000000       0.00000000       0.00000000       0.00000000       0.00000000       0.00000000
   Cl         11.28470298      11.72740734       5.52835284       0.00000000       0.00000000       0.00000000       0.00000000       0.00000000       0.00000000
    K          9.02776238      10.42436208       7.37113712       0.00000000       0.00000000       0.00000000       0.00000000       0.00000000       0.00000000
   Cl         13.54164357      13.03045260       9.21392140       0.00000000       0.00000000       0.00000000       0.00000000       0.00000000       0.00000000
    K         11.28470298      11.72740734      11.05670568       0.00000000       0.00000000       0.00000000       0.00000000       0.00000000       0.00000000
   Cl         15.79858417      14.33349786      12.89948995       0.00000000       0.00000000       0.00000000       0.00000000       0.00000000       0.00000000
    K         13.54164357      13.03045260      14.74227423       0.00000000       0.00000000       0.00000000       0.00000000       0.00000000       0.00000000
   Cl         18.05552476      15.63654312      16.58505851       0.00000000       0.00000000       0.00000000       0.00000000       0.00000000       0.00000000
    K         15.79858417      14.33349786      18.42784279       0.00000000       0.00000000       0.00000000       0.00000000       0.00000000       0.00000000
   Cl         20.31246536      16.93958838      20.27062707       0.00000000       0.00000000       0.00000000       0.00000000       0.00000000       0.00000000
    K          6.77082179      11.72740734       0.00000000       0.00000000       0.00000000       0.00000000       0.00000000       0.00000000       0.00000000
   Cl         11.28470298      14.33349786       1.84278428       0.00000000       0.00000000       0.00000000       0.00000000       0.00000000       0.00000000
    K          9.02776238      13.03045260       3.68556856       0.00000000       0.00000000       0.00000000       0.00000000       0.00000000       0.00000000
   Cl         13.54164357      15.63654312       5.52835284       0.00000000       0.00000000       0.00000000       0.00000000       0.00000000       0.00000000
    K         11.28470298      14.33349786       7.37113712       0.00000000       0.00000000       0.00000000       0.00000000       0.00000000       0.00000000
   Cl         15.79858417      16.93958838       9.21392140       0.00000000       0.00000000       0.00000000       0.00000000       0.00000000       0.00000000
    K         13.54164357      15.63654312      11.05670568       0.00000000       0.00000000       0.00000000       0.00000000       0.00000000       0.00000000
   Cl         18.05552476      18.24263364      12.89948995       0.00000000       0.00000000       0.00000000       0.00000000       0.00000000       0.00000000
    K         15.79858417      16.93958838      14.74227423       0.00000000       0.00000000       0.00000000       0.00000000       0.00000000       0.00000000
   Cl         20.31246536      19.54567890      16.58505851       0.00000000       0.00000000       0.00000000       0.00000000       0.00000000       0.00000000
    K         18.05552476      18.24263364      18.42784279       0.00000000       0.00000000       0.00000000       0.00000000       0.00000000       0.00000000
   Cl         22.56940595      20.84872416      20.27062707       0.00000000       0.00000000       0.00000000       0.00000000       0.00000000       0.00000000
    K          9.02776238      15.63654312       0.00000000       0.00000000       0.00000000       0.00000000       0.00000000       0.00000000       0.00000000
   Cl         13.54164357      18.24263364       1.84278428       0.00000000       0.00000000       0.00000000       0.00000000       0.00000000       0.00000000
    K         11.28470298      16.93958838       3.68556856       0.00000000       0.00000000       0.00000000       0.00000000       0.00000000       0.00000000
   Cl         15.79858417      19.54567890       5.52835284       0.00000000       0.00000000       0.00000000       0.00000000       0.00000000       0.00000000
    K         13.54164357      18.24263364       7.37113712       0.00000000       0.00000000       0.00000000       0.00000000       0.00000000       0.00000000
   Cl         18.05552476      20.84872416       9.21392140       0.00000000       0.00000000       0.00000000       0.00000000       0.00000000       0.00000000
    K         15.79858417      19.54567890      11.05670568       0.00000000       0.00000000       0.00000000       0.00000000       0.00000000       0.00000000
   Cl         20.31246536      22.15176942      12.89948995       0.00000000       0.00000000       0.00000000       0.00000000       0.00000000       0.00000000
    K         18.05552476      20.84872416      14.74227423       0.00000000       0.00000000       0.00000000       0.00000000       0.00000000       0.00000000
   Cl         22.56940595      23.45481468      16.58505851       0.00000000       0.00000000       0.00000000       0.00000000       0.00000000       0.00000000
    K         20.31246536      22.15176942      18.42784279       0.00000000       0.00000000       0.00000000       0.00000000       0.00000000       0.00000000
   Cl         24.82634655      24.75785994      20.27062707       0.00000000       0.00000000       0.00000000       0.00000000       0.00000000       0.00000000
    K         11.28470298      19.54567890       0.00000000       0.00000000       0.00000000       0.00000000       0.00000000       0.00000000       0.00000000
   Cl         15.79858417      22.15176942       1.84278428       0.00000000       0.00000000       0.00000000       0.00000000       0.00000000       0.00000000
    K         13.54164357      20.84872416       3.68556856       0.00000000       0.00000000       0.00000000       0.00000000       0.00000000       0.00000000
   Cl         18.05552476      23.45481468       5.52835284       0.00000000       0.00000000       0.00000000       0.00000000       0.00000000       0.00000000
    K         15.79858417      22.15176942       7.37113712       0.00000000       0.00000000       0.00000000       0.00000000       0.00000000       0.00000000
   Cl         20.31246536      24.75785994       9.21392140       0.00000000       0.00000000       0.00000000       0.00000000       0.00000000       0.00000000
    K         18.05552476      23.45481468      11.05670568       0.00000000       0.00000000       0.00000000       0.00000000       0.00000000       0.00000000
   Cl         22.56940595      26.06090520      12.89948995       0.00000000       0.00000000       0.00000000       0.00000000       0.00000000       0.00000000
    K         20.31246536      24.75785994      14.74227423       0.00000000       0.00000000       0.00000000       0.00000000       0.00000000       0.00000000
   Cl         24.82634655      27.36395046      16.58505851       0.00000000       0.00000000       0.00000000       0.00000000       0.00000000       0.00000000
    K         22.56940595      26.06090520      18.42784279       0.00000000       0.00000000       0.00000000       0.00000000       0.00000000       0.00000000
   Cl         27.08328714      28.66699572      20.27062707       0.00000000       0.00000000       0.00000000       0.00000000       0.00000000       0.00000000
    K          4.51388119       0.00000000       0.00000000       0.00000000       0.00000000       0.00000000       0.00000000       0.00000000       0.00000000
   Cl          9.02776238       2.60609052       1.84278428       0.00000000       0.00000000       0.00000000       0.00000000       0.00000000       0.00000000
    K          6.77082179       1.30304526       3.68556856       0.00000000       0.00000000       0.00000000       0.00000000       0.00000000       0.00000000
   Cl         11.28470298       3.90913578       5.52835284       0.00000000       0.00000000       0.00000000       0.00000000       0.00000000       0.00000000
    K          9.02776238       2.60609052       7.37113712       0.00000000       0.00000000       0.00000000       0.00000000       0.00000000       0.00000000
   Cl         13.54164357       5.21218104       9.21392140       0.00000000       0.00000000       0.00000000       0.00000000       0.00000000       0.00000000
    K         11.28470298       3.90913578      11.05670568       0.00000000       0.00000000       0.00000000       0.00000000       0.00000000       0.00000000
   Cl         15.79858417       6.51522630      12.89948995       0.00000000       0.00000000       0.00000000       0.00000000       0.00000000       0.00000000
    K         13.54164357       5.21218104      14.74227423       0.00000000       0.00000000       0.00000000       0.00000000       0.00000000       0.00000000
   Cl         18.05552476       7.81827156      16.58505851       0.00000000       0.00000000       0.00000000       0.00000000       0.00000000       0.00000000
    K         15.79858417       6.51522630      18.42784279       0.00000000       0.00000000       0.00000000       0.00000000       0.00000000       0.00000000
   Cl         20.31246536       9.12131682      20.27062707       0.00000000       0.00000000       0.00000000       0.00000000       0.00000000       0.00000000
    K          6.77082179       3.90913578       0.00000000       0.00000000       0.00000000       0.00000000       0.00000000       0.00000000       0.00000000
   Cl         11.28470298       6.51522630       1.84278428       0.00000000       0.00000000       0.00000000       0.00000000       0.00000000       0.00000000
    K          9.02776238       5.21218104       3.68556856       0.00000000       0.00000000       0.00000000       0.00000000       0.00000000       0.00000000
   Cl         13.54164357       7.81827156       5.52835284       0.00000000       0.00000000       0.00000000       0.00000000       0.00000000       0.00000000
    K         11.28470298       6.51522630       7.37113712       0.00000000       0.00000000       0.00000000       0.00000000       0.00000000       0.00000000
   Cl         15.79858417       9.12131682       9.21392140       0.00000000       0.00000000       0.00000000       0.00000000       0.00000000       0.00000000
    K         13.54164357       7.81827156      11.05670568       0.00000000       0.00000000       0.00000000       0.00000000       0.00000000       0.00000000
   Cl         18.05552476      10.42436208      12.89948995       0.00000000       0.00000000       0.00000000       0.00000000       0.00000000       0.00000000
    K         15.79858417       9.12131682      14.74227423       0.00000000       0.00000000       0.00000000       0.00000000       0.00000000       0.00000000
   Cl         20.31246536      11.72740734      16.58505851       0.00000000       0.00000000       0.00000000       0.00000000       0.00000000       0.00000000
    K         18.05552476      10.42436208      18.42784279       0.00000000       0.00000000       0.00000000       0.00000000       0.00000000       0.00000000
   Cl         22.56940595      13.03045260      20.27062707       0.00000000       0.00000000       0.00000000       0.00000000       0.00000000       0.00000000
    K          9.02776238       7.81827156       0.00000000       0.00000000       0.00000000       0.00000000       0.00000000       0.00000000       0.00000000
   Cl         13.54164357      10.42436208       1.84278428       0.00000000       0.00000000       0.00000000       0.00000000       0.00000000       0.00000000
    K         11.28470298       9.12131682       3.68556856       0.00000000       0.00000000       0.00000000       0.00000000       0.00000000       0.00000000
   Cl         15.79858417      11.72740734       5.52835284       0.00000000       0.00000000       0.00000000       0.00000000       0.00000000       0.00000000
    K         13.54164357      10.42436208       7.37113712       0.00000000       0.00000000       0.00000000       0.00000000       0.00000000       0.00000000
   Cl         18.05552476      13.03045260       9.21392140       0.00000000       0.00000000       0.00000000       0.00000000       0.00000000       0.00000000
    K         15.79858417      11.72740734      11.05670568       0.00000000       0.00000000       0.00000000       0.00000000       0.00000000       0.00000000
   Cl         20.31246536      14.33349786      12.89948995       0.00000000       0.00000000       0.00000000       0.00000000       0.00000000       0.00000000
    K         18.05552476      13.03045260      14.74227423       0.00000000       0.00000000       0.00000000       0.00000000       0.00000000       0.00000000
   Cl         22.56940595      15.63654312      16.58505851       0.00000000       0.00000000       0.00000000       0.00000000       0.00000000       0.00000000
    K         20.31246536      14.33349786      18.42784279       0.00000000       0.00000000       0.00000000       0.00000000       0.00000000       0.00000000
   Cl         24.82634655      16.93958838      20.27062707       0.00000000       0.00000000       0.00000000       0.00000000       0.00000000       0.00000000
    K         11.28470298      11.72740734       0.00000000       0.00000000       0.00000000       0.00000000       0.00000000       0.00000000       0.00000000
   Cl         15.79858417      14.33349786       1.84278428       0.00000000       0.00000000       0.00000000       0.00000000       0.00000000       0.00000000
    K         13.54164357      13.03045260       3.68556856       0.00000000       0.00000000       0.00000000       0.00000000       0.00000000       0.00000000
   Cl         18.05552476      15.63654312       5.52835284       0.00000000       0.00000000       0.00000000       0.00000000       0.00000000       0.00000000
    K         15.79858417      14.33349786       7.37113712       0.00000000       0.00000000       0.00000000       0.00000000       0.00000000       0.00000000
   Cl         20.31246536      16.93958838       9.21392140       0.00000000       0.00000000       0.00000000       0.00000000       0.00000000       0.00000000
    K         18.05552476      15.63654312      11.05670568       0.00000000       0.00000000       0.00000000       0.00000000       0.00000000       0.00000000
   Cl         22.56940595      18.24263364      12.89948995       0.00000000       0.00000000       0.00000000       0.00000000       0.00000000       0.00000000
    K         20.31246536      16.93958838      14.74227423       0.00000000       0.00000000       0.00000000       0.00000000       0.00000000       0.00000000
   Cl         24.82634655      19.54567890      16.58505851       0.00000000       0.00000000       0.00000000       0.00000000       0.00000000       0.00000000
    K         22.56940595      18.24263364      18.42784279       0.00000000       0.00000000       0.00000000       0.00000000       0.00000000       0.00000000
   Cl         27.08328714      20.84872416      20.27062707       0.00000000       0.00000000       0.00000000       0.00000000       0.00000000       0.00000000
    K         13.54164357      15.63654312       0.00000000       0.00000000       0.00000000       0.00000000       0.00000000       0.00000000       0.00000000
   Cl         18.05552476      18.24263364       1.84278428       0.00000000       0.00000000       0.00000000       0.00000000       0.00000000       0.00000000
    K         15.79858417      16.93958838       3.68556856       0.00000000       0.00000000       0.00000000       0.00000000       0.00000000       0.00000000
   Cl         20.31246536      19.54567890       5.52835284       0.00000000       0.00000000       0.00000000       0.00000000       0.00000000       0.00000000
    K         18.05552476      18.24263364       7.37113712       0.00000000       0.00000000       0.00000000       0.00000000       0.00000000       0.00000000
   Cl         22.56940595      20.84872416       9.21392140       0.00000000       0.00000000       0.00000000       0.00000000       0.00000000       0.00000000
    K         20.31246536      19.54567890      11.05670568       0.00000000       0.00000000       0.00000000       0.00000000       0.00000000       0.00000000
   Cl         24.82634655      22.15176942      12.89948995       0.00000000       0.00000000       0.00000000       0.00000000       0.00000000       0.00000000
    K         22.56940595      20.84872416      14.74227423       0.00000000       0.00000000       0.00000000       0.00000000       0.00000000       0.00000000
   Cl         27.08328714      23.45481468      16.58505851       0.00000000       0.00000000       0.00000000       0.00000000       0.00000000       0.00000000
    K         24.82634655      22.15176942      18.42784279       0.00000000       0.00000000       0.00000000       0.00000000       0.00000000       0.00000000
   Cl         29.34022774      24.75785994      20.27062707       0.00000000       0.00000000       0.00000000       0.00000000       0.00000000       0.00000000
    K         15.79858417      19.54567890       0.00000000       0.00000000       0.00000000       0.00000000       0.00000000       0.00000000       0.00000000
   Cl         20.31246536      22.15176942       1.84278428       0.00000000       0.00000000       0.00000000       0.00000000       0.00000000       0.00000000
    K         18.05552476      20.84872416       3.68556856       0.00000000       0.00000000       0.00000000       0.00000000       0.00000000       0.00000000
   Cl         22.56940595      23.45481468       5.52835284       0.00000000       0.00000000       0.00000000       0.00000000       0.00000000       0.00000000
    K         20.31246536      22.15176942       7.37113712       0.00000000       0.00000000       0.00000000       0.00000000       0.00000000       0.00000000
   Cl         24.82634655      24.75785994       9.21392140       0.00000000       0.00000000       0.00000000       0.00000000       0.00000000       0.00000000
    K         22.56940595      23.45481468      11.05670568       0.00000000       0.00000000       0.00000000       0.00000000       0.00000000       0.00000000
   Cl         27.08328714      26.06090520      12.89948995       0.00000000       0.00000000       0.00000000       0.00000000       0.00000000       0.00000000
    K         24.82634655      24.75785994      14.74227423       0.00000000       0.00000000       0.00000000       0.00000000       0.00000000       0.00000000
   Cl         29.34022774      27.36395046      16.58505851       0.00000000       0.00000000       0.00000000       0.00000000       0.00000000       0.00000000
    K         27.08328714      26.06090520      18.42784279       0.00000000       0.00000000       0.00000000       0.00000000       0.00000000       0.00000000
   Cl         31.59716833      28.66699572      20.27062707       0.00000000       0.00000000       0.00000000       0.00000000       0.00000000       0.00000000
    K          9.02776238       0.00000000       0.00000000       0.00000000       0.00000000       0.00000000       0.00000000       0.00000000       0.00000000
   Cl         13.54164357       2.60609052       1.84278428       0.00000000       0.00000000       0.00000000       0.00000000       0.00000000       0.00000000
    K         11.28470298       1.30304526       3.68556856       0.00000000       0.00000000       0.00000000       0.00000000       0.00000000       0.00000000
   Cl         15.79858417       3.90913578       5.52835284       0.00000000       0.00000000       0.00000000       0.00000000       0.00000000       0.00000000
    K         13.54164357       2.60609052       7.37113712       0.00000000       0.00000000       0.00000000       0.00000000       0.00000000       0.00000000
   Cl         18.05552476       5.21218104       9.21392140       0.00000000       0.00000000       0.00000000       0.00000000       0.00000000       0.00000000
    K         15.79858417       3.90913578      11.05670568       0.00000000       0.00000000       0.00000000       0.00000000       0.00000000       0.00000000
   Cl         20.31246536       6.51522630      12.89948995       0.00000000       0.00000000       0.00000000       0.00000000       0.00000000       0.00000000
    K         18.05552476       5.21218104      14.74227423       0.00000000       0.00000000       0.00000000       0.00000000       0.00000000       0.00000000
   Cl         22.56940595       7.81827156      16.58505851       0.00000000       0.00000000       0.00000000       0.00000000       0.00000000       0.00000000
    K         20.31246536       6.51522630      18.42784279       0.00000000       0.00000000       0.00000000       0.00000000       0.00000000       0.00000000
   Cl         24.82634655       9.12131682      20.27062707       0.00000000       0.00000000       0.00000000       0.00000000       0.00000000       0.00000000
    K         11.28470298       3.90913578       0.00000000       0.00000000       0.00000000       0.00000000       0.00000000       0.00000000       0.00000000
   Cl         15.79858417       6.51522630       1.84278428       0.00000000       0.00000000       0.00000000       0.00000000       0.00000000       0.00000000
    K         13.54164357       5.21218104       3.68556856       0.00000000       0.00000000       0.00000000       0.00000000       0.00000000       0.00000000
   Cl         18.05552476       7.81827156       5.52835284       0.00000000       0.00000000       0.00000000       0.00000000       0.00000000       0.00000000
    K         15.79858417       6.51522630       7.37113712       0.00000000       0.00000000       0.00000000       0.00000000       0.00000000       0.00000000
   Cl         20.31246536       9.12131682       9.21392140       0.00000000       0.00000000       0.00000000       0.00000000       0.00000000       0.00000000
    K         18.05552476       7.81827156      11.05670568       0.00000000       0.00000000       0.00000000       0.00000000       0.00000000       0.00000000
   Cl         22.56940595      10.42436208      12.89948995       0.00000000       0.00000000       0.00000000       0.00000000       0.00000000       0.00000000
    K         20.31246536       9.12131682      14.74227423       0.00000000       0.00000000       0.00000000       0.00000000       0.00000000       0.00000000
   Cl         24.82634655      11.72740734      16.58505851       0.00000000       0.00000000       0.00000000       0.00000000       0.00000000       0.00000000
    K         22.56940595      10.42436208      18.42784279       0.00000000       0.00000000       0.00000000       0.00000000       0.00000000       0.00000000
   Cl         27.08328714      13.03045260      20.27062707       0.00000000       0.00000000       0.00000000       0.00000000       0.00000000       0.00000000
    K         13.54164357       7.81827156       0.00000000       0.00000000       0.00000000       0.00000000       0.00000000       0.00000000       0.00000000
   Cl         18.05552476      10.42436208       1.84278428       0.00000000       0.00000000       0.00000000       0.00000000       0.00000000       0.00000000
    K         15.79858417       9.12131682       3.68556856       0.00000000       0.00000000       0.00000000       0.00000000       0.00000000       0.00000000
   Cl         20.31246536      11.72740734       5.52835284       0.00000000       0.00000000       0.00000000       0.00000000       0.00000000       0.00000000
    K         18.05552476      10.42436208       7.37113712       0.00000000       0.00000000       0.00000000       0.00000000       0.00000000       0.00000000
   Cl         22.56940595      13.03045260       9.21392140       0.00000000       0.00000000       0.00000000       0.00000000       0.00000000       0.00000000
    K         20.31246536      11.72740734      11.05670568       0.00000000       0.00000000       0.00000000       0.00000000       0.00000000       0.00000000
   Cl         24.82634655      14.33349786      12.89948995       0.00000000       0.00000000       0.00000000       0.00000000       0.00000000       0.00000000
    K         22.56940595      13.03045260      14.74227423       0.00000000       0.00000000       0.00000000       0.00000000       0.00000000       0.00000000
   Cl         27.08328714      15.63654312      16.58505851       0.00000000       0.00000000       0.00000000       0.00000000       0.00000000       0.00000000
    K         24.82634655      14.33349786      18.42784279       0.00000000       0.00000000       0.00000000       0.00000000       0.00000000       0.00000000
   Cl         29.34022774      16.93958838      20.27062707       0.00000000       0.00000000       0.00000000       0.00000000       0.00000000       0.00000000
    K         15.79858417      11.72740734       0.00000000       0.00000000       0.00000000       0.00000000       0.00000000       0.00000000       0.00000000
   Cl         20.31246536      14.33349786       1.84278428       0.00000000       0.00000000       0.00000000       0.00000000       0.00000000       0.00000000
    K         18.05552476      13.03045260       3.68556856       0.00000000       0.00000000       0.00000000       0.00000000       0.00000000       0.00000000