160
   time=   0.000000 (fs)  Energy=  0.000000 (eV)
BOX         5.25773400       0.00000000       0.00000000       0.00000000      18.86645400       5.34583600       0.00000000       0.00000000      29.50878001
    W          1.31443350       8.68692026      14.40962417       0.00000000       0.00000000       0.00000000       0.00000000       0.00000000       0.00000000
    W          1.31443350       3.41922474       0.34476583       0.00000000       0.00000000       0.00000000       0.00000000       0.00000000       0.00000000
    W          1.31443350      11.31217937      13.69235426       0.00000000       0.00000000       0.00000000       0.00000000       0.00000000       0.00000000
    W          1.31443350       0.79396563       1.06203575       0.00000000       0.00000000       0.00000000       0.00000000       0.00000000       0.00000000
    W          1.31443350       4.48279553      12.93393435       0.00000000       0.00000000       0.00000000       0.00000000       0.00000000       0.00000000
    W          1.31443350       7.62334947       1.82045566       0.00000000       0.00000000       0.00000000       0.00000000       0.00000000       0.00000000
    W          1.31443350       7.08923834      12.22985486       0.00000000       0.00000000       0.00000000       0.00000000       0.00000000       0.00000000
    W          1.31443350       5.01690667       2.52453515       0.00000000       0.00000000       0.00000000       0.00000000       0.00000000       0.00000000
    W          1.31443350       9.68043099      11.54584134       0.00000000       0.00000000       0.00000000       0.00000000       0.00000000       0.00000000
    W          1.31443350       2.42571402       3.20854867       0.00000000       0.00000000       0.00000000       0.00000000       0.00000000       0.00000000
    W          1.31443350       2.86033434      10.83056326       0.00000000       0.00000000       0.00000000       0.00000000       0.00000000       0.00000000
    W          1.31443350       9.24581066       3.92382674       0.00000000       0.00000000       0.00000000       0.00000000       0.00000000       0.00000000
    W          1.31443350       5.48333116      10.06846951       0.00000000       0.00000000       0.00000000       0.00000000       0.00000000       0.00000000
    W          1.31443350       6.62281384       4.68592049       0.00000000       0.00000000       0.00000000       0.00000000       0.00000000       0.00000000
    W          1.31443350       8.05941078       9.37976409       0.00000000       0.00000000       0.00000000       0.00000000       0.00000000       0.00000000
    W          1.31443350       4.04673422       5.37462591       0.00000000       0.00000000       0.00000000       0.00000000       0.00000000       0.00000000
    W          1.31443350      10.64077473       8.70330482       0.00000000       0.00000000       0.00000000       0.00000000       0.00000000       0.00000000
    W          1.31443350       1.46537028       6.05108518       0.00000000       0.00000000       0.00000000       0.00000000       0.00000000       0.00000000
    W          1.31443350       3.80023203       8.01492400       0.00000000       0.00000000       0.00000000       0.00000000       0.00000000       0.00000000
    W          1.31443350       8.30591297       6.73946600       0.00000000       0.00000000       0.00000000       0.00000000       0.00000000       0.00000000
    W          1.31443350      11.35983827      29.16401418       0.00000000       0.00000000       0.00000000       0.00000000       0.00000000       0.00000000
    W          1.31443350       6.09214274      15.09915583       0.00000000       0.00000000       0.00000000       0.00000000       0.00000000       0.00000000
    W          1.31443350      13.98509737      28.44674426       0.00000000       0.00000000       0.00000000       0.00000000       0.00000000       0.00000000
    W          1.31443350       3.46688363      15.81642575       0.00000000       0.00000000       0.00000000       0.00000000       0.00000000       0.00000000
    W          1.31443350       7.15571354      27.68832435       0.00000000       0.00000000       0.00000000       0.00000000       0.00000000       0.00000000
    W          1.31443350      10.29626747      16.57484566       0.00000000       0.00000000       0.00000000       0.00000000       0.00000000       0.00000000
    W          1.31443350       9.76215634      26.98424486       0.00000000       0.00000000       0.00000000       0.00000000       0.00000000       0.00000000
    W          1.31443350       7.68982467      17.27892515       0.00000000       0.00000000       0.00000000       0.00000000       0.00000000       0.00000000
    W          1.31443350      12.35334899      26.30023134       0.00000000       0.00000000       0.00000000       0.00000000       0.00000000       0.00000000
    W          1.31443350       5.09863202      17.96293867       0.00000000       0.00000000       0.00000000       0.00000000       0.00000000       0.00000000
    W          1.31443350       5.53325235      25.58495327       0.00000000       0.00000000       0.00000000       0.00000000       0.00000000       0.00000000
    W          1.31443350      11.91872866      18.67821674       0.00000000       0.00000000       0.00000000       0.00000000       0.00000000       0.00000000
    W          1.31443350       8.15624916      24.82285951       0.00000000       0.00000000       0.00000000       0.00000000       0.00000000       0.00000000
    W          1.31443350       9.29573184      19.44031050       0.00000000       0.00000000       0.00000000       0.00000000       0.00000000       0.00000000
    W          1.31443350      10.73232878      24.13415410       0.00000000       0.00000000       0.00000000       0.00000000       0.00000000       0.00000000
    W          1.31443350       6.71965222      20.12901591       0.00000000       0.00000000       0.00000000       0.00000000       0.00000000       0.00000000
    W          1.31443350      13.31369273      23.45769482       0.00000000       0.00000000       0.00000000       0.00000000       0.00000000       0.00000000
    W          1.31443350       4.13828828      20.80547519       0.00000000       0.00000000       0.00000000       0.00000000       0.00000000       0.00000000
    W          1.31443350       6.47315003      22.76931400       0.00000000       0.00000000       0.00000000       0.00000000       0.00000000       0.00000000
    W          1.31443350      10.97883097      21.49385601       0.00000000       0.00000000       0.00000000       0.00000000       0.00000000       0.00000000
    W          1.31443350      18.12014726      14.40962417       0.00000000       0.00000000       0.00000000       0.00000000       0.00000000       0.00000000
    W          1.31443350      12.85245174       0.34476583       0.00000000       0.00000000       0.00000000       0.00000000       0.00000000       0.00000000
    W          1.31443350      20.74540637      13.69235426       0.00000000       0.00000000       0.00000000       0.00000000       0.00000000       0.00000000
    W          1.31443350      10.22719263       1.06203575       0.00000000       0.00000000       0.00000000       0.00000000       0.00000000       0.00000000
    W          1.31443350      13.91602253      12.93393435       0.00000000       0.00000000       0.00000000       0.00000000       0.00000000       0.00000000
    W          1.31443350      17.05657647       1.82045566       0.00000000       0.00000000       0.00000000       0.00000000       0.00000000       0.00000000
    W          1.31443350      16.52246534      12.22985486       0.00000000       0.00000000       0.00000000       0.00000000       0.00000000       0.00000000
    W          1.31443350      14.45013367       2.52453515       0.00000000       0.00000000       0.00000000       0.00000000       0.00000000       0.00000000
    W          1.31443350      19.11365799      11.54584134       0.00000000       0.00000000       0.00000000       0.00000000       0.00000000       0.00000000
    W          1.31443350      11.85894102       3.20854867       0.00000000       0.00000000       0.00000000       0.00000000       0.00000000       0.00000000
    W          1.31443350      12.29356134      10.83056326       0.00000000       0.00000000       0.00000000       0.00000000       0.00000000       0.00000000
    W          1.31443350      18.67903766       3.92382674       0.00000000       0.00000000       0.00000000       0.00000000       0.00000000       0.00000000
    W          1.31443350      14.91655816      10.06846951       0.00000000       0.00000000       0.00000000       0.00000000       0.00000000       0.00000000
    W          1.31443350      16.05604084       4.68592049       0.00000000       0.00000000       0.00000000       0.00000000       0.00000000       0.00000000
    W          1.31443350      17.49263778       9.37976409       0.00000000       0.00000000       0.00000000       0.00000000       0.00000000       0.00000000
    W          1.31443350      13.47996122       5.37462591       0.00000000       0.00000000       0.00000000       0.00000000       0.00000000       0.00000000
    W          1.31443350      20.07400173       8.70330482       0.00000000       0.00000000       0.00000000       0.00000000       0.00000000       0.00000000
    W          1.31443350      10.89859728       6.05108518       0.00000000       0.00000000       0.00000000       0.00000000       0.00000000       0.00000000
    W          1.31443350      13.23345903       8.01492400       0.00000000       0.00000000       0.00000000       0.00000000       0.00000000       0.00000000
    W          1.31443350      17.73913997       6.73946600       0.00000000       0.00000000       0.00000000       0.00000000       0.00000000       0.00000000
    W          1.31443350      20.79306527      29.16401418       0.00000000       0.00000000       0.00000000       0.00000000       0.00000000       0.00000000
    W          1.31443350      15.52536974      15.09915583       0.00000000       0.00000000       0.00000000       0.00000000       0.00000000       0.00000000
    W          1.31443350      23.41832437      28.44674426       0.00000000       0.00000000       0.00000000       0.00000000       0.00000000       0.00000000
    W          1.31443350      12.90011063      15.81642575       0.00000000       0.00000000       0.00000000       0.00000000       0.00000000       0.00000000
    W          1.31443350      16.58894054      27.68832435       0.00000000       0.00000000       0.00000000       0.00000000       0.00000000       0.00000000
    W          1.31443350      19.72949447      16.57484566       0.00000000       0.00000000       0.00000000       0.00000000       0.00000000       0.00000000
    W          1.31443350      19.19538334      26.98424486       0.00000000       0.00000000       0.00000000       0.00000000       0.00000000       0.00000000
    W          1.31443350      17.12305167      17.27892515       0.00000000       0.00000000       0.00000000       0.00000000       0.00000000       0.00000000
    W          1.31443350      21.78657599      26.30023134       0.00000000       0.00000000       0.00000000       0.00000000       0.00000000       0.00000000
    W          1.31443350      14.53185902      17.96293867       0.00000000       0.00000000       0.00000000       0.00000000       0.00000000       0.00000000
    W          1.31443350      14.96647935      25.58495327       0.00000000       0.00000000       0.00000000       0.00000000       0.00000000       0.00000000
    W          1.31443350      21.35195566      18.67821674       0.00000000       0.00000000       0.00000000       0.00000000       0.00000000       0.00000000
    W          1.31443350      17.58947616      24.82285951       0.00000000       0.00000000       0.00000000       0.00000000       0.00000000       0.00000000
    W          1.31443350      18.72895884      19.44031050       0.00000000       0.00000000       0.00000000       0.00000000       0.00000000       0.00000000
    W          1.31443350      20.16555578      24.13415410       0.00000000       0.00000000       0.00000000       0.00000000       0.00000000       0.00000000
    W          1.31443350      16.15287922      20.12901591       0.00000000       0.00000000       0.00000000       0.00000000       0.00000000       0.00000000
    W          1.31443350      22.74691973      23.45769482       0.00000000       0.00000000       0.00000000       0.00000000       0.00000000       0.00000000
    W          1.31443350      13.57151528      20.80547519       0.00000000       0.00000000       0.00000000       0.00000000       0.00000000       0.00000000
    W          1.31443350      15.90637703      22.76931400       0.00000000       0.00000000       0.00000000       0.00000000       0.00000000       0.00000000
    W          1.31443350      20.41205797      21.49385601       0.00000000       0.00000000       0.00000000       0.00000000       0.00000000       0.00000000
    W          3.94330050       8.68692026      14.40962417       0.00000000       0.00000000       0.00000000       0.00000000       0.00000000       0.00000000
    W          3.94330050       3.41922474       0.34476583       0.00000000       0.00000000       0.00000000       0.00000000       0.00000000       0.00000000
    W          3.94330050      11.31217937      13.69235426       0.00000000       0.00000000       0.00000000       0.00000000       0.00000000       0.00000000
    W          3.94330050       0.79396563       1.06203575       0.00000000       0.00000000       0.00000000       0.00000000       0.00000000       0.00000000
    W          3.94330050       4.48279553      12.93393435       0.00000000       0.00000000       0.00000000       0.00000000       0.00000000       0.00000000
    W          3.94330050       7.62334947       1.82045566       0.00000000       0.00000000       0.00000000       0.00000000       0.00000000       0.00000000
    W          3.94330050       7.08923834      12.22985486       0.00000000       0.00000000       0.00000000       0.00000000       0.00000000       0.00000000
    W          3.94330050       5.01690667       2.52453515       0.00000000       0.00000000       0.00000000       0.00000000       0.00000000       0.00000000
    W          3.94330050       9.68043099      11.54584134       0.00000000       0.00000000       0.00000000       0.00000000       0.00000000       0.00000000
    W          3.94330050       2.42571402       3.20854867       0.00000000       0.00000000       0.00000000       0.00000000       0.00000000       0.00000000
    W          3.94330050       2.86033434      10.83056326       0.00000000       0.00000000       0.00000000       0.00000000       0.00000000       0.00000000
    W          3.94330050       9.24581066       3.92382674       0.00000000       0.00000000       0.00000000       0.00000000       0.00000000       0.00000000
    W          3.94330050       5.48333116      10.06846951       0.00000000       0.00000000       0.00000000       0.00000000       0.00000000       0.00000000
    W          3.94330050       6.62281384       4.68592049       0.00000000       0.00000000       0.00000000       0.00000000       0.00000000       0.00000000
    W          3.94330050       8.05941078       9.37976409       0.00000000       0.00000000       0.00000000       0.00000000       0.00000000       0.00000000
    W          3.94330050       4.04673422       5.37462591       0.00000000       0.00000000       0.00000000       0.00000000       0.00000000       0.00000000
    W          3.94330050      10.64077473       8.70330482       0.00000000       0.00000000       0.00000000       0.00000000       0.00000000       0.00000000
    W          3.94330050       1.46537028       6.05108518       0.00000000       0.00000000       0.00000000       0.00000000       0.00000000       0.00000000
    W          3.94330050       3.80023203       8.01492400       0.00000000       0.00000000       0.00000000       0.00000000       0.00000000       0.00000000
    W          3.94330050       8.30591297       6.73946600       0.00000000       0.00000000       0.00000000       0.00000000       0.00000000       0.00000000
    W          3.94330050      11.35983827      29.16401418       0.00000000       0.00000000       0.00000000       0.00000000       0.00000000       0.00000000
    W          3.94330050       6.09214274      15.09915583       0.00000000       0.00000000       0.00000000       0.00000000       0.00000000       0.00000000
    W          3.94330050      13.98509737      28.44674426       0.00000000       0.00000000       0.00000000       0.00000000       0.00000000       0.00000000
    W          3.94330050       3.46688363      15.81642575       0.00000000       0.00000000       0.00000000       0.00000000       0.00000000       0.00000000
    W          3.94330050       7.15571354      27.68832435       0.00000000       0.00000000       0.00000000       0.00000000       0.00000000       0.00000000
    W          3.94330050      10.29626747      16.57484566       0.00000000       0.00000000       0.00000000       0.00000000       0.00000000       0.00000000
    W          3.94330050       9.76215634      26.98424486       0.00000000       0.00000000       0.00000000       0.00000000       0.00000000       0.00000000
    W          3.94330050       7.68982467      17.27892515       0.00000000       0.00000000       0.00000000       0.00000000       0.00000000       0.00000000
    W          3.94330050      12.35334899      26.30023134       0.00000000       0.00000000       0.00000000       0.00000000       0.00000000       0.00000000
    W          3.94330050       5.09863202      17.96293867       0.00000000       0.00000000       0.00000000       0.00000000       0.00000000       0.00000000
    W          3.94330050       5.53325235      25.58495327       0.00000000       0.00000000       0.00000000       0.00000000       0.00000000       0.00000000
    W          3.94330050      11.91872866      18.67821674       0.00000000       0.00000000       0.00000000       0.00000000       0.00000000       0.00000000
    W          3.94330050       8.15624916      24.82285951       0.00000000       0.00000000       0.00000000       0.00000000       0.00000000       0.00000000
    W          3.94330050       9.29573184      19.44031050       0.00000000       0.00000000       0.00000000       0.00000000       0.00000000       0.00000000
    W          3.94330050      10.73232878      24.13415410       0.00000000       0.00000000       0.00000000       0.00000000       0.00000000       0.00000000
    W          3.94330050       6.71965222      20.12901591       0.00000000       0.00000000       0.00000000       0.00000000       0.00000000       0.00000000
    W          3.94330050      13.31369273      23.45769482       0.00000000       0.00000000       0.00000000       0.00000000       0.00000000       0.00000000
    W          3.94330050       4.13828828      20.80547519       0.00000000       0.00000000       0.00000000       0.00000000       0.00000000       0.00000000
    W          3.94330050       6.47315003      22.76931400       0.00000000       0.00000000       0.00000000       0.00000000       0.00000000       0.00000000
    W          3.94330050      10.97883097      21.49385601       0.00000000       0.00000000       0.00000000       0.00000000       0.00000000       0.00000000
    W          3.94330050      18.12014726      14.40962417       0.00000000       0.00000000       0.00000000       0.00000000       0.00000000       0.00000000
    W          3.94330050      12.85245174       0.34476583       0.00000000       0.00000000       0.00000000       0.00000000       0.00000000       0.00000000
    W          3.94330050      20.74540637      13.69235426       0.00000000       0.00000000       0.00000000       0.00000000       0.00000000       0.00000000
    W          3.94330050      10.22719263       1.06203575       0.00000000       0.00000000       0.00000000       0.00000000       0.00000000       0.00000000
    W          3.94330050      13.91602253      12.93393435       0.00000000       0.00000000       0.00000000       0.00000000       0.00000000       0.00000000
    W          3.94330050      17.05657647       1.82045566       0.00000000       0.00000000       0.00000000       0.00000000       0.00000000       0.00000000
    W          3.94330050      16.52246534      12.22985486       0.00000000       0.00000000       0.00000000       0.00000000       0.00000000       0.00000000
    W          3.94330050      14.45013367       2.52453515       0.00000000       0.00000000       0.00000000       0.00000000       0.00000000       0.00000000
    W          3.94330050      19.11365799      11.54584134       0.00000000       0.00000000       0.00000000       0.00000000       0.00000000       0.00000000
    W          3.94330050      11.85894102       3.20854867       0.00000000       0.00000000       0.00000000       0.00000000       0.00000000       0.00000000
    W          3.94330050      12.29356134      10.83056326       0.00000000       0.00000000       0.00000000       0.00000000       0.00000000       0.00000000
    W          3.94330050      18.67903766       3.92382674       0.00000000       0.00000000       0.00000000       0.00000000       0.00000000       0.00000000
    W          3.94330050      14.91655816      10.06846951       0.00000000       0.00000000       0.00000000       0.00000000       0.00000000       0.00000000
    W          3.94330050      16.05604084       4.68592049       0.00000000       0.00000000       0.00000000       0.00000000       0.00000000       0.00000000
    W          3.94330050      17.49263778       9.37976409       0.00000000       0.00000000       0.00000000       0.00000000       0.00000000       0.00000000
    W          3.94330050      13.47996122       5.37462591       0.00000000       0.00000000       0.00000000       0.00000000       0.00000000       0.00000000
    W          3.94330050      20.07400173       8.70330482       0.00000000       0.00000000       0.00000000       0.00000000       0.00000000       0.00000000
    W          3.94330050      10.89859728       6.05108518       0.00000000       0.00000000       0.00000000       0.00000000       0.00000000       0.00000000
    W          3.94330050      13.23345903       8.01492400       0.00000000       0.00000000       0.00000000       0.00000000       0.00000000       0.00000000
    W          3.94330050      17.73913997       6.73946600       0.00000000       0.00000000       0.00000000       0.00000000       0.00000000       0.00000000
    W          3.94330050      20.79306527      29.16401418       0.00000000       0.00000000       0.00000000       0.00000000       0.00000000       0.00000000
    W          3.94330050      15.52536974      15.09915583       0.00000000       0.00000000       0.00000000       0.00000000       0.00000000       0.00000000
    W          3.94330050      23.41832437      28.44674426       0.00000000       0.00000000       0.00000000       0.00000000       0.00000000       0.00000000
    W          3.94330050      12.90011063      15.81642575       0.00000000       0.00000000       0.00000000       0.00000000       0.00000000       0.00000000
    W          3.94330050      16.58894054      27.68832435       0.00000000       0.00000000       0.00000000       0.00000000       0.00000000       0.00000000
    W          3.94330050      19.72949447      16.57484566       0.00000000       0.00000000       0.00000000       0.00000000       0.00000000       0.00000000
    W          3.94330050      19.19538334      26.98424486       0.00000000       0.00000000       0.00000000       0.00000000       0.00000000       0.00000000
    W          3.94330050      17.12305167      17.27892515       0.00000000       0.00000000       0.00000000       0.00000000       0.00000000       0.00000000
    W          3.94330050      21.78657599      26.30023134       0.00000000       0.00000000       0.00000000       0.00000000       0.00000000       0.00000000
    W          3.94330050      14.53185902      17.96293867       0.00000000       0.00000000       0.00000000       0.00000000       0.00000000       0.00000000
    W          3.94330050      14.96647935      25.58495327       0.00000000       0.00000000       0.00000000       0.00000000       0.00000000       0.00000000
    W          3.94330050      21.35195566      18.67821674       0.00000000       0.00000000       0.00000000       0.00000000       0.00000000       0.00000000
    W          3.94330050      17.58947616      24.82285951       0.00000000       0.00000000       0.00000000       0.00000000       0.00000000       0.00000000
    W          3.94330050      18.72895884      19.44031050       0.00000000       0.00000000       0.00000000       0.00000000       0.00000000       0.00000000
    W          3.94330050      20.16555578      24.13415410       0.00000000       0.00000000       0.00000000       0.00000000       0.00000000       0.00000000
    W          3.94330050      16.15287922      20.12901591       0.00000000       0.00000000       0.00000000       0.00000000       0.00000000       0.00000000
    W          3.94330050      22.74691973      23.45769482       0.00000000       0.00000000       0.00000000       0.00000000       0.00000000       0.00000000
    W          3.94330050      13.57151528      20.80547519       0.00000000       0.00000000       0.00000000       0.00000000       0.00000000       0.00000000
    W          3.94330050      15.90637703      22.76931400       0.00000000       0.00000000       0.00000000       0.00000000       0.00000000       0.00000000
    W          3.94330050      20.41205797      21.49385601       0.00000000       0.00000000       0.00000000       0.00000000       0.00000000       0.00000000
